      -----------------------------------------------------------      
     |                   =====================                   |     
     |                           x T B                           |     
     |                   =====================                   |     
     |                         S. Grimme                         |     
     |          Mulliken Center for Theoretical Chemistry        |     
     |                    University of Bonn                     |     
      -----------------------------------------------------------      

   * xtb version 6.7.1 (edcfbbe) compiled by 'conda@3ef47c1a292c' on 2024-11-25

   xtb is free software: you can redistribute it and/or modify it under
   the terms of the GNU Lesser General Public License as published by
   the Free Software Foundation, either version 3 of the License, or
   (at your option) any later version.
   
   xtb is distributed in the hope that it will be useful,
   but WITHOUT ANY WARRANTY; without even the implied warranty of
   MERCHANTABILITY or FITNESS FOR A PARTICULAR PURPOSE.  See the
   GNU Lesser General Public License for more details.
   
   Cite this work as:
   * C. Bannwarth, E. Caldeweyher, S. Ehlert, A. Hansen, P. Pracht,
     J. Seibert, S. Spicher, S. Grimme, WIREs Comput. Mol. Sci., 2020, 11,
     e01493. DOI: 10.1002/wcms.1493
   
   for GFN2-xTB:
   * C. Bannwarth, S. Ehlert and S. Grimme., J. Chem. Theory Comput., 2019,
     15, 1652-1671. DOI: 10.1021/acs.jctc.8b01176
   for GFN1-xTB:
   * S. Grimme, C. Bannwarth, P. Shushkov, J. Chem. Theory Comput., 2017,
     13, 1989-2009. DOI: 10.1021/acs.jctc.7b00118
   for GFN0-xTB:
   * P. Pracht, E. Caldeweyher, S. Ehlert, S. Grimme, ChemRxiv, 2019, preprint.
     DOI: 10.26434/chemrxiv.8326202.v1
   for GFN-FF:
   * S. Spicher and S. Grimme, Angew. Chem. Int. Ed., 2020, 59, 15665-15673.
     DOI: 10.1002/anie.202004239
   
   for ALPB and GBSA implicit solvation:
   * S. Ehlert, M. Stahn, S. Spicher, S. Grimme, J. Chem. Theory Comput.,
     2021, 17, 4250-4261. DOI: 10.1021/acs.jctc.1c00471
   
   for ddCOSMO and CPCM-X implicit solvation:
   * M. Stahn, S. Ehlert, S. Grimme, J. Phys. Chem. A,
     2023, XX, XXXX-XXXX. DOI: 10.1021/acs.jpca.3c04382
   
   for DFT-D4:
   * E. Caldeweyher, C. Bannwarth and S. Grimme, J. Chem. Phys., 2017,
     147, 034112. DOI: 10.1063/1.4993215
   * E. Caldeweyher, S. Ehlert, A. Hansen, H. Neugebauer, S. Spicher,
     C. Bannwarth and S. Grimme, J. Chem. Phys., 2019, 150, 154122.
     DOI: 10.1063/1.5090222
   * E. Caldeweyher, J.-M. Mewes, S. Ehlert and S. Grimme, Phys. Chem. Chem. Phys.
     2020, 22, 8499-8512. DOI: 10.1039/D0CP00502A
   
   for sTDA-xTB:
   * S. Grimme and C. Bannwarth, J. Chem. Phys., 2016, 145, 054103.
     DOI: 10.1063/1.4959605
   
   in the mass-spec context:
   * V. Asgeirsson, C. Bauer and S. Grimme, Chem. Sci., 2017, 8, 4879.
     DOI: 10.1039/c7sc00601b
   * J. Koopman and S. Grimme, ACS Omega 2019, 4, 12, 15120-15133.
     DOI: 10.1021/acsomega.9b02011
   
   for metadynamics refer to:
   * S. Grimme, J. Chem. Theory Comput., 2019, 155, 2847-2862
     DOI: 10.1021/acs.jctc.9b00143
   
   for SPH calculations refer to:
   * S. Spicher and S. Grimme, J. Chem. Theory Comput., 2021, 17, 1701-1714
     DOI: 10.1021/acs.jctc.0c01306
   
   for ONIOM refer to:
   * C. Plett, A. Katbashev, S. Ehlert, S. Grimme, M. Bursch,
     Phys. Chem. Chem. Phys., 2023, 25, 17860-17868. DOI: 10.1039/D3CP02178E
   
   for DIPRO refer to:
   * J. Kohn, N. Gildemeister, S. Grimme, D. Fazzi, A. Hansen,
     J. Chem. Phys., 2023, just accepted.
   
   for PTB refer to:
   * S. Grimme, M. Mueller, A. Hansen, J. Chem. Phys., 2023, 158, 124111.
     DOI: 10.1063/5.0137838
   
   with help from (in alphabetical order)
   P. Atkinson, C. Bannwarth, F. Bohle, G. Brandenburg, E. Caldeweyher
   M. Checinski, S. Dohm, S. Ehlert, S. Ehrlich, I. Gerasimov, C. Hölzer
   A. Katbashev, J. Kohn, J. Koopman, C. Lavigne, S. Lehtola, F. März, M. Müller,
   F. Musil, H. Neugebauer, J. Pisarek, C. Plett, P. Pracht, F. Pultar,
   J. Seibert, P. Shushkov, S. Spicher, M. Stahn, M. Steiner, T. Strunk,
   J. Stückrath, T. Rose, and J. Unsleber
   
 * started run on 2024/12/05 at 16:17:48.634     
   ID    Z sym.   atoms
    1    8 o      1, 83
    2    1 h      2, 3, 26, 62-82, 84
    3    6 c      4-25, 27-61

           -------------------------------------------------
          |                Calculation Setup                |
           -------------------------------------------------

          program call               : xtb interaction --opt
          coordinate file            : interaction
          omp threads                :                    16


molecular fragmentation (1/2 indicates fragments):
111222222222222222222222222222222222222222222222222222222222222222222222
222222222222
# atoms in fragment 1/2:     3    81
 fragment masses (1/2) :       18.02      723.79
CMA distance (Bohr)    :  23.222
constraining FC (au)   :  0.0500

           -------------------------------------------------
          |                 G F N 2 - x T B                 |
           -------------------------------------------------

        Reference                      10.1021/acs.jctc.8b01176
      * Hamiltonian:
        H0-scaling (s, p, d)           1.850000    2.230000    2.230000
        zeta-weighting                 0.500000
      * Dispersion:
        s8                             2.700000
        a1                             0.520000
        a2                             5.000000
        s9                             5.000000
      * Repulsion:
        kExp                           1.500000    1.000000
        rExp                           1.000000
      * Coulomb:
        alpha                          2.000000
        third order                    shell-resolved
        anisotropic                    true
        a3                             3.000000
        a5                             4.000000
        cn-shift                       1.200000
        cn-exp                         4.000000
        max-rad                        5.000000


          ...................................................
          :                      SETUP                      :
          :.................................................:
          :  # basis functions                 261          :
          :  # atomic orbitals                 261          :
          :  # shells                          143          :
          :  # electrons                       265          :
          :  max. iterations                   250          :
          :  Hamiltonian                  GFN2-xTB          :
          :  restarted?                      false          :
          :  GBSA solvation                  false          :
          :  PC potential                    false          :
          :  electronic temp.          300.0000000     K    :
          :  accuracy                    1.0000000          :
          :  -> integral cutoff          0.2500000E+02      :
          :  -> integral neglect         0.1000000E-07      :
          :  -> SCF convergence          0.1000000E-05 Eh   :
          :  -> wf. convergence          0.1000000E-03 e    :
          :  Broyden damping             0.4000000          :
          :  net charge                          0          :
          :  unpaired electrons                  0          :
          ...................................................

 iter      E             dE          RMSdq      gap      omega  full diag
   1   -145.6287556 -0.145629E+03  0.487E+00    0.29       0.0  T
   2   -145.4362374  0.192518E+00  0.302E+00    0.31       1.0  T
   3   -143.5340491  0.190219E+01  0.342E+00    0.32       1.0  T
   4   -145.3486986 -0.181465E+01  0.139E+00    0.74       1.0  T
   5   -145.4307609 -0.820623E-01  0.142E+00    0.85       1.0  T
   6   -145.6230477 -0.192287E+00  0.843E-01    0.38       1.0  T
   7   -145.6619381 -0.388904E-01  0.612E-01    0.32       1.0  T
   8   -145.6908021 -0.288640E-01  0.412E-01    0.32       1.0  T
   9   -145.7001581 -0.935597E-02  0.246E-01    0.21       1.0  T
  10   -145.7061452 -0.598711E-02  0.211E-01    0.27       1.0  T
  11   -145.7115221 -0.537692E-02  0.396E-02    0.25       1.0  T
  12   -145.7111633  0.358814E-03  0.563E-02    0.25       1.0  T
  13   -145.7116348 -0.471485E-03  0.989E-03    0.25       1.1  T
  14   -145.7116370 -0.226370E-05  0.756E-03    0.25       1.4  T
  15   -145.7116445 -0.748364E-05  0.253E-03    0.25       4.3  T
  16   -145.7116442  0.295366E-06  0.238E-03    0.25       4.6  T
  17   -145.7116450 -0.782551E-06  0.626E-04    0.25      17.4  T
  18   -145.7116450 -0.174688E-07  0.472E-04    0.25      23.1  T

   *** convergence criteria satisfied after 18 iterations ***

         #    Occupation            Energy/Eh            Energy/eV
      -------------------------------------------------------------
         1        2.0000           -0.6819382             -18.5565
       ...           ...                  ...                  ...
       127        2.0000           -0.3858651             -10.4999
       128        2.0000           -0.3765749             -10.2471
       129        2.0000           -0.3703458             -10.0776
       130        2.0000           -0.3644416              -9.9170
       131        2.0000           -0.3521754              -9.5832
       132        1.8276           -0.3342315              -9.0949
       133        1.1645           -0.3312470              -9.0137 (HOMO)
       134        0.0079           -0.3220287              -8.7628 (LUMO)
       135                         -0.2926356              -7.9630
       136                         -0.2724434              -7.4136
       137                         -0.2669498              -7.2641
       138                         -0.2514671              -6.8428
       ...                                ...                  ...
       261                          0.7505691              20.4240
      -------------------------------------------------------------
                  HL-Gap            0.0092183 Eh            0.2508 eV
             Fermi-level           -0.3296783 Eh           -8.9710 eV

 SCC (total)                   0 d,  0 h,  0 min,  0.791 sec
 SCC setup                      ...        0 min,  0.001 sec (  0.078%)
 Dispersion                     ...        0 min,  0.003 sec (  0.405%)
 classical contributions        ...        0 min,  0.000 sec (  0.033%)
 integral evaluation            ...        0 min,  0.011 sec (  1.435%)
 iterations                     ...        0 min,  0.713 sec ( 90.087%)
 molecular gradient             ...        0 min,  0.039 sec (  4.970%)
 printout                       ...        0 min,  0.024 sec (  2.988%)

         :::::::::::::::::::::::::::::::::::::::::::::::::::::
         ::                     SUMMARY                     ::
         :::::::::::::::::::::::::::::::::::::::::::::::::::::
         :: total energy            -143.061214801591 Eh    ::
         :: gradient norm              0.000246103387 Eh/a0 ::
         :: HOMO-LUMO gap              0.250842366545 eV    ::
         ::.................................................::
         :: SCC energy              -145.713228538607 Eh    ::
         :: -> isotropic ES            0.067175539905 Eh    ::
         :: -> anisotropic ES          0.005102678073 Eh    ::
         :: -> anisotropic XC          0.060650292116 Eh    ::
         :: -> dispersion             -0.149789098215 Eh    ::
         :: repulsion energy           2.652013737016 Eh    ::
         :: add. restraining           0.000000000000 Eh    ::
         :: total charge              -0.000000000000 e     ::
         :::::::::::::::::::::::::::::::::::::::::::::::::::::

      ----------------------------------------------------------- 
     |                   =====================                   |
     |                        A N C O P T                        |
     |                   =====================                   |
     |               Approximate Normal Coordinate               |
     |                Rational Function Optimizer                |
      ----------------------------------------------------------- 
      ----------------------------------------------------------- 
     |                   =====================                   |
     |                        A N C O P T                        |
     |                   =====================                   |
     |               Approximate Normal Coordinate               |
     |                Rational Function Optimizer                |
      ----------------------------------------------------------- 

          ...................................................
          :                      SETUP                      :
          :.................................................:
          :   optimization level            normal          :
          :   max. optcycles                   252          :
          :   ANC micro-cycles                  20          :
          :   degrees of freedom               246          :
          :.................................................:
          :   RF solver                   davidson          :
          :   write xtbopt.log                true          :
          :   linear?                        false          :
          :   energy convergence         0.5000000E-05 Eh   :
          :   grad. convergence          0.1000000E-02 Eh/α :
          :   maxmium RF displ.          1.0000000          :
          :   Hlow (freq-cutoff)         0.1000000E-01      :
          :   Hmax (freq-cutoff)         5.0000000          :
          :   S6 in model hess.         20.0000000          :
          ...................................................

generating ANC from exact Hessian ...
Using Lindh-Hessian (1995)
 Shifting diagonal of input Hessian by    9.9918872388963173E-003
 Lowest  eigenvalues of input Hessian
    0.000000    0.000000    0.000000    0.000000    0.000000    0.000000
    0.010000    0.010006    0.010021    0.010044    0.010247    0.010419
    0.010494    0.010721    0.011096    0.011311    0.011944    0.013472
 Highest eigenvalues
    2.102862    2.124240    2.152805    2.162723    2.165938    2.195656


........................................................................
.............................. CYCLE    1 ..............................
........................................................................

 iter      E             dE          RMSdq      gap      omega  full diag
   1   -145.7116450 -0.145712E+03  0.174E-04    0.25       0.0  T
   2   -145.7116449  0.113727E-06  0.837E-04    0.25      13.0  T
   3   -145.7116450 -0.944810E-07  0.352E-04    0.25      31.0  T
     SCC iter.                  ...        0 min,  0.128 sec
     gradient                   ...        0 min,  0.048 sec
 * total energy  :  -143.0612148 Eh     change       -0.4247426E-08 Eh
   gradient norm :     0.0002470 Eh/α   predicted     0.0000000E+00 (-100.00%)
   displ. norm   :     0.0135905 α      lambda       -0.7384542E-07
   maximum displ.:     0.0118735 α      in ANC's #8, #10, #1, ...

   *** GEOMETRY OPTIMIZATION CONVERGED AFTER 1 ITERATIONS ***

------------------------------------------------------------------------
 total energy gain   :        -0.0000000 Eh       -0.0000 kcal/mol
 total RMSD          :         0.0000000 a0        0.0000 Å
 total power (kW/mol):        -0.0000112 (step)   -0.0000 (real)
------------------------------------------------------------------------

 ANCopt (total)                0 d,  0 h,  0 min,  0.259 sec
 optimizer setup                ...        0 min,  0.000 sec (  0.070%)
 model hessian                  ...        0 min,  0.025 sec (  9.737%)
 ANC generation                 ...        0 min,  0.018 sec (  6.991%)
 coordinate transformation      ...        0 min,  0.000 sec (  0.027%)
 single point calculation       ...        0 min,  0.215 sec ( 82.979%)
 optimization log               ...        0 min,  0.000 sec (  0.099%)
 hessian update                 ...        0 min,  0.000 sec (  0.001%)
 rational function              ...        0 min,  0.000 sec (  0.054%)

================
 final structure:
================
$coord
       -2.58353907178499        1.28375709712252       -0.00504592780170      o
       -4.12801223374225        1.50575078393002       -0.92715254925335      h
       -2.58021315380500        2.50114701273527        1.33767665264696      h
        2.40754264517974        1.39673236998268       18.96324785415323      c
        0.09541865117381        5.40574287851497       19.39485328635410      c
       -2.25344106962371        9.47307447456425       19.69509459557743      c
       -4.51223575918511       13.51825306139363       19.39706776609965      c
       -6.78797993782667       17.55821511953896       19.06469778168612      c
        4.57433780359709        0.12109898833682       18.55292755042511      c
        6.94403603908933        1.40363546312671       18.24600998021457      c
        2.32209842741533        4.10588364882165       18.92553863112369      c
        4.57618184584368        5.44390596908747       18.23921321445857      c
       -0.03454328294162        8.07378412040893       19.41858001333836      c
        2.23826065461668        9.40158739608972       18.84506580879873      c
       -2.27951733692465       12.12024735874453       19.37241353859607      c
        0.06676477054160       13.45358945102996       19.08221696999057      c
       -4.52911952253870       16.15931056207001       19.10453297835675      c
       -2.19816918873804       17.47716560987434       18.85500012490470      c
       -6.74607721438043       20.15446311246796       18.77901718988667      c
       -4.48798552553046       21.44377574816899       18.53441144255387      c
        9.19895781967170        0.08203670082994       18.24207177017223      c
       11.57083496956609        1.29785545428314       18.30315589836881      c
        6.94739736668771        4.10408624408184       18.09468845402383      c
        9.32384108433507        5.30537548858159       18.14974715916511      c
        4.29178464017533        8.06149789204364       17.93516159879066      c
       22.49694269874524        0.21973835036142       19.03494090890499      h
        2.34771010235377       12.10955337339707       19.05846186464636      c
        4.65115782055676       13.46015945128396       19.27266204207553      c
        0.09639525976351       16.12336236228991       18.89177145190761      c
        2.42118906513696       17.43099135617298       18.69702143848604      c
       -2.16716036963624       20.14856022560081       18.57188867520831      c
        0.16299852344758       21.40992275851692       18.36007140670321      c
       13.86408787666946        0.00217739842105       18.39531413549948      c
       16.17100417777040        1.28020621021329       18.60851716301058      c
       11.59785895712911        3.99630376224508       18.36408806280297      c
       13.92969671446058        5.32820948456563       18.68397599458500      c
        9.40556214015155        8.08433544368463       18.28926378907521      c
       11.76707080204425        9.37723007148493       19.00916729031249      c
        6.93344054235482       12.34200374921218       20.33711326679542      c
        9.36497935773492       13.41114308555364       19.50977845539608      c
        4.71090105611952       16.09579389403534       18.92503867435644      c
        7.07212170717022       17.39714636117525       18.91732208611050      c
        2.45144073066071       20.11823070865616       18.44270528671424      c
        4.81875945337668       21.35799457970655       18.34644476805537      c
       18.48911174736878       -0.02369354326097       18.70177321108285      c
       20.74166476761855        1.26121894767901       18.97183163802365      c
       16.19377375027558        3.97680469508138       18.79266117840431      c
       18.54278358276596        5.28611015616133       19.10485194071080      c
       13.99046683850646        8.02190613766926       18.99944382709262      c
       16.34202405977594        9.34049585384496       19.28193558737681      c
       11.65749616391768       12.02701119562322       19.36848331393722      c
       14.02077203285145       13.36215799503416       19.33929463952645      c
        9.36523753027941       16.04645961405077       19.11702219358383      c
       11.73442702151012       17.35792978291414       18.98116767138522      c
        7.07666627955895       20.06335784097160       18.57996879859341      c
        9.47443937458676       21.32900328731180       18.49683406149457      c
       20.78404969077915        3.86917252390894       19.17538893825077      c
       18.56584525861223        7.93050683471834       19.31676677666509      c
       16.27235257206463       11.99908717419148       19.36478948839398      c
       13.96333501969883       16.03536078987617       19.20909802352106      c
       11.67132345360928       20.05088213381202       18.68581935728745      c
       -4.48359826590090       23.47370856314226       18.31690901616068      h
        0.16647370369958       23.44390347869196       18.16921142730533      h
        4.84481559228159       23.38769497094853       18.11421126730826      h
        9.46785443636019       23.35915302949196       18.26999228403269      h
        4.59737901611964       -1.92149900473375       18.56707706696851      h
        9.15472034887924       -1.96026784234283       18.30177988502178      h
       13.86682307731370       -2.03977461390917       18.32436731142390      h
       18.47793794473793       -2.06062195492961       18.56368052409302      h
        0.66491058552532        0.39529437751705       19.32875737651548      h
       -1.61487276160690        4.34326566206914       19.74755335425138      h
       -4.01820470343347        8.51027615065512       20.05818366268814      h
       -6.29411425006874       12.54853699036849       19.64240896632074      h
       -8.56619277682087       16.57404452399884       19.25651348008192      h
       22.56241267932436        4.84715501201183       19.39871141770582      h
       20.36097061782687        8.88642209964847       19.51370921389049      h
       18.04310043366679       13.01887600572495       19.38933603744045      h
       15.73794702978539       17.04941779449416       19.22386751389681      h
       13.45884546615648       21.03765054853432       18.61479496100047      h
       -8.50493610869305       21.19157328331164       18.74955832325635      h
        5.59598865799373        9.18455710010509       16.87744088787261      h
        8.86928028358384        8.91318646117902       16.47176774427312      h
        6.79858797256517       10.72923091095584       22.01384668305035      o
        7.99101514725280        8.52028007755057       19.71564126934150      h
$end

 Bond Distances (Angstroems)
 ---------------------------
O1-H2=0.9591         O1-H3=0.9591         H2-O1=0.9591         H3-O1=0.9591         C4-C9=1.3482         C4-C11=1.4345        
C4-H70=1.0810        C5-C11=1.3868        C5-C13=1.4136        C5-H71=1.0817        C6-C13=1.3959        C6-C15=1.4113        
C6-H72=1.0810        C7-C15=1.3941        C7-C17=1.4062        C7-H73=1.0813        C8-C17=1.4062        C8-C19=1.3823        
C8-H74=1.0803        C9-C4=1.3482         C9-C10=1.4351        C9-H66=1.0810        C10-C9=1.4351        C10-C21=1.3831       
C10-C23=1.4313       C11-C4=1.4345        C11-C5=1.3868        C11-C12=1.4339       C12-C11=1.4339       C12-C23=1.4433       
C12-C25=1.4026       C13-C5=1.4136        C13-C6=1.3959        C13-C14=1.4256       C14-C13=1.4256       C14-C25=1.3841       
C14-C27=1.4386       C15-C6=1.4113        C15-C7=1.3941        C15-C16=1.4363       C16-C15=1.4363       C16-C27=1.4010       
C16-C29=1.4165       C17-C7=1.4062        C17-C8=1.4062        C17-C18=1.4231       C18-C17=1.4231       C18-C29=1.4100       
C18-C31=1.4217       C19-C8=1.3823        C19-C20=1.3821       C19-H80=1.0806       C20-C19=1.3821       C20-C31=1.4066       
C20-H62=1.0803       C21-C10=1.3831       C21-C22=1.4108       C21-H67=1.0815       C22-C21=1.4108       C22-C33=1.3947       
C22-C35=1.4284       C23-C10=1.4313       C23-C12=1.4433       C23-C24=1.4094       C24-C23=1.4094       C24-C35=1.3931       
C24-C37=1.4730       C25-C12=1.4026       C25-C14=1.3841       C25-H81=1.0690       H26-C46=1.0806       C27-C14=1.4386       
C27-C16=1.4010       C27-C28=1.4176       C28-C27=1.4176       C28-C39=1.4581       C28-C41=1.4072       C29-C16=1.4165       
C29-C18=1.4100       C29-C30=1.4152       C30-C29=1.4152       C30-C41=1.4078       C30-C43=1.4285       C31-C18=1.4217       
C31-C20=1.4066       C31-C32=1.4066       C32-C31=1.4066       C32-C43=1.3913       C32-H63=1.0811       C33-C22=1.3947       
C33-C34=1.4001       C33-H68=1.0812       C34-C33=1.4001       C34-C45=1.4083       C34-C47=1.4304       C35-C22=1.4284       
C35-C24=1.3931       C35-C36=1.4311       C36-C35=1.4311       C36-C47=1.3965       C36-C49=1.4355       C37-C24=1.4730       
C37-C38=1.4747       C37-H82=1.0945       C37-H84=1.0878       C38-C37=1.4747       C38-C49=1.3779       C38-C51=1.4162       
C39-C28=1.4581       C39-C40=1.4722       C39-O83=1.2332       C40-C39=1.4722       C40-C51=1.4191       C40-C53=1.4100       
C41-C28=1.4072       C41-C30=1.4078       C41-C42=1.4267       C42-C41=1.4267       C42-C53=1.4123       C42-C55=1.4221       
C43-C30=1.4285       C43-C32=1.3913       C43-C44=1.4150       C44-C43=1.4150       C44-C55=1.3828       C44-H64=1.0812       
C45-C34=1.4083       C45-C46=1.3797       C45-H69=1.0804       C46-H26=1.0806       C46-C45=1.3797       C46-C57=1.3844       
C47-C34=1.4304       C47-C36=1.3965       C47-C48=1.4327       C48-C47=1.4327       C48-C57=1.4037       C48-C58=1.4039       
C49-C36=1.4355       C49-C38=1.3779       C49-C50=1.4345       C50-C49=1.4345       C50-C58=1.3935       C50-C59=1.4080       
C51-C38=1.4162       C51-C40=1.4191       C51-C52=1.4365       C52-C51=1.4365       C52-C59=1.3929       C52-C60=1.4166       
C53-C40=1.4100       C53-C42=1.4123       C53-C54=1.4348       C54-C53=1.4348       C54-C60=1.3768       C54-C61=1.4340       
C55-C42=1.4221       C55-C44=1.3828       C55-C56=1.4354       C56-C55=1.4354       C56-C61=1.3487       C56-H65=1.0810       
C57-C46=1.3844       C57-C48=1.4037       C57-H75=1.0805       C58-C48=1.4039       C58-C50=1.3935       C58-H76=1.0813       
C59-C50=1.4080       C59-C52=1.3929       C59-H77=1.0814       C60-C52=1.4166       C60-C54=1.3768       C60-H78=1.0816       
C61-C54=1.4340       C61-C56=1.3487       C61-H79=1.0811       H62-C20=1.0803       H63-C32=1.0811       H64-C44=1.0812       
H65-C56=1.0810       H66-C9=1.0810        H67-C21=1.0815       H68-C33=1.0812       H69-C45=1.0804       H70-C4=1.0810        
H71-C5=1.0817        H72-C6=1.0810        H73-C7=1.0813        H74-C8=1.0803        H75-C57=1.0805       H76-C58=1.0813       
H77-C59=1.0814       H78-C60=1.0816       H79-C61=1.0811       H80-C19=1.0806       H81-C25=1.0690       H82-C37=1.0945       
O83-C39=1.2332       H84-C37=1.0878       
 C  H  Rav=1.0814 sigma=0.0040  Rmin=1.0690  Rmax=1.0945    23
 C  C  Rav=1.4127 sigma=0.0243  Rmin=1.3482  Rmax=1.4747    74
 O  H  Rav=0.9591 sigma=0.0000  Rmin=0.9591  Rmax=0.9591     2
 O  C  Rav=1.2332 sigma=0.0000  Rmin=1.2332  Rmax=1.2332     1

 selected bond angles (degree)
 --------------------
H3-O1-H2=107.23                C11-C4-C9=121.67               H70-C4-C9=120.59               H70-C4-C11=117.74              
C13-C5-C11=122.57              H71-C5-C11=118.95              H71-C5-C13=118.48              C15-C6-C13=121.47              
H72-C6-C13=119.69              H72-C6-C15=118.74              C17-C7-C15=122.13              H73-C7-C15=119.23              
H73-C7-C17=118.64              C19-C8-C17=120.75              H74-C8-C17=119.03              H74-C8-C19=120.22              
C10-C9-C4=121.64               H66-C9-C4=120.61               H66-C9-C10=117.63              C21-C10-C9=120.99              
C23-C10-C9=118.66              C23-C10-C21=120.24             

 selected dihedral angles (degree)
 ---------------------------------
C10-C9-C4-C11=  4.78          C10-C9-C4-H70=184.60          H66-C9-C4-C11=180.72          H66-C9-C4-H70=  0.54          
C21-C10-C9-C4=169.27          C21-C10-C9-H66=353.21         C23-C10-C9-C4=352.99          C23-C10-C9-H66=176.92         

 CMA Distance (Angstroems)
 ---------------------------
R(CMA): 12.2885
           -------------------------------------------------
          |                Final Singlepoint                |
           -------------------------------------------------

          ...................................................
          :                      SETUP                      :
          :.................................................:
          :  # basis functions                 261          :
          :  # atomic orbitals                 261          :
          :  # shells                          143          :
          :  # electrons                       265          :
          :  max. iterations                   250          :
          :  Hamiltonian                  GFN2-xTB          :
          :  restarted?                      false          :
          :  GBSA solvation                  false          :
          :  PC potential                    false          :
          :  electronic temp.          300.0000000     K    :
          :  accuracy                    1.0000000          :
          :  -> integral cutoff          0.2500000E+02      :
          :  -> integral neglect         0.1000000E-07      :
          :  -> SCF convergence          0.1000000E-05 Eh   :
          :  -> wf. convergence          0.1000000E-03 e    :
          :  Broyden damping             0.4000000          :
          :  net charge                          0          :
          :  unpaired electrons                  0          :
          ...................................................

 iter      E             dE          RMSdq      gap      omega  full diag
   1   -145.7116450 -0.145712E+03  0.162E-04    0.25       0.0  T
   2   -145.7116449  0.131434E-06  0.910E-04    0.25      12.0  T
   3   -145.7116450 -0.122610E-06  0.273E-04    0.25      40.0  T

   *** convergence criteria satisfied after 3 iterations ***

         #    Occupation            Energy/Eh            Energy/eV
      -------------------------------------------------------------
         1        2.0000           -0.6819344             -18.5564
       ...           ...                  ...                  ...
       127        2.0000           -0.3858642             -10.4999
       128        2.0000           -0.3765734             -10.2471
       129        2.0000           -0.3703447             -10.0776
       130        2.0000           -0.3644399              -9.9169
       131        2.0000           -0.3521746              -9.5832
       132        1.8275           -0.3342314              -9.0949
       133        1.1645           -0.3312473              -9.0137 (HOMO)
       134        0.0079           -0.3220301              -8.7629 (LUMO)
       135                         -0.2926344              -7.9630
       136                         -0.2724427              -7.4135
       137                         -0.2669495              -7.2641
       138                         -0.2514669              -6.8428
       ...                                ...                  ...
       261                          0.7505704              20.4241
      -------------------------------------------------------------
                  HL-Gap            0.0092172 Eh            0.2508 eV
             Fermi-level           -0.3296788 Eh           -8.9710 eV

 SCC (total)                   0 d,  0 h,  0 min,  0.197 sec
 SCC setup                      ...        0 min,  0.000 sec (  0.238%)
 Dispersion                     ...        0 min,  0.001 sec (  0.645%)
 classical contributions        ...        0 min,  0.000 sec (  0.071%)
 integral evaluation            ...        0 min,  0.007 sec (  3.557%)
 iterations                     ...        0 min,  0.123 sec ( 62.244%)
 molecular gradient             ...        0 min,  0.043 sec ( 21.957%)
 printout                       ...        0 min,  0.022 sec ( 11.273%)

         :::::::::::::::::::::::::::::::::::::::::::::::::::::
         ::                     SUMMARY                     ::
         :::::::::::::::::::::::::::::::::::::::::::::::::::::
         :: total energy            -143.061214815561 Eh    ::
         :: gradient norm              0.000247209457 Eh/a0 ::
         :: HOMO-LUMO gap              0.250812631579 eV    ::
         ::.................................................::
         :: SCC energy              -145.713228552578 Eh    ::
         :: -> isotropic ES            0.067169263793 Eh    ::
         :: -> anisotropic ES          0.005103523559 Eh    ::
         :: -> anisotropic XC          0.060650017676 Eh    ::
         :: -> dispersion             -0.149788814148 Eh    ::
         :: repulsion energy           2.652013737016 Eh    ::
         :: add. restraining           0.000000000000 Eh    ::
         :: total charge              -0.000000000000 e     ::
         :::::::::::::::::::::::::::::::::::::::::::::::::::::

           -------------------------------------------------
          |                Property Printout                |
           -------------------------------------------------

    * Orbital Energies and Occupations

         #    Occupation            Energy/Eh            Energy/eV
      -------------------------------------------------------------
         1        2.0000           -0.6819344             -18.5564
       ...           ...                  ...                  ...
       121        2.0000           -0.4054690             -11.0334
       122        2.0000           -0.4038669             -10.9898
       123        2.0000           -0.3996440             -10.8749
       124        2.0000           -0.3982930             -10.8381
       125        2.0000           -0.3967883             -10.7972
       126        2.0000           -0.3946190             -10.7381
       127        2.0000           -0.3858642             -10.4999
       128        2.0000           -0.3765734             -10.2471
       129        2.0000           -0.3703447             -10.0776
       130        2.0000           -0.3644399              -9.9169
       131        2.0000           -0.3521746              -9.5832
       132        1.8275           -0.3342314              -9.0949
       133        1.1645           -0.3312473              -9.0137 (HOMO)
       134        0.0079           -0.3220301              -8.7629 (LUMO)
       135                         -0.2926344              -7.9630
       136                         -0.2724427              -7.4135
       137                         -0.2669495              -7.2641
       138                         -0.2514669              -6.8428
       139                         -0.2395672              -6.5190
       140                         -0.2367553              -6.4424
       141                         -0.2305058              -6.2724
       142                         -0.2231572              -6.0724
       143                         -0.2180320              -5.9330
       144                         -0.2116185              -5.7584
       ...                                ...                  ...
       261                          0.7505704              20.4241
      -------------------------------------------------------------
                  HL-Gap            0.0092172 Eh            0.2508 eV
             Fermi-level           -0.3296788 Eh           -8.9710 eV

     #   Z          covCN         q      C6AA      α(0)
     1   8 o        1.611    -0.565    24.358     6.661
     2   1 h        0.805     0.282     0.776     1.384
     3   1 h        0.805     0.282     0.777     1.384
     4   6 c        2.911    -0.034    28.851     8.808
     5   6 c        2.919    -0.042    29.046     8.838
     6   6 c        2.918    -0.039    28.970     8.826
     7   6 c        2.921    -0.038    28.946     8.823
     8   6 c        2.919    -0.034    28.856     8.809
     9   6 c        2.911    -0.034    28.855     8.808
    10   6 c        2.977     0.014    27.690     8.632
    11   6 c        2.980     0.016    27.652     8.626
    12   6 c        2.971     0.013    27.721     8.636
    13   6 c        2.973     0.016    27.646     8.625
    14   6 c        2.987     0.015    27.670     8.629
    15   6 c        2.970     0.014    27.703     8.633
    16   6 c        2.996    -0.000    28.029     8.685
    17   6 c        2.975     0.014    27.708     8.634
    18   6 c        2.998     0.001    27.992     8.679
    19   6 c        2.910    -0.029    28.714     8.787
    20   6 c        2.919    -0.033    28.828     8.805
    21   6 c        2.921    -0.047    29.178     8.858
    22   6 c        2.974     0.012    27.748     8.641
    23   6 c        2.975    -0.006    28.156     8.704
    24   6 c        2.975     0.010    27.782     8.646
    25   6 c        2.928    -0.042    29.033     8.836
    26   1 h        0.926     0.032     2.552     2.498
    27   6 c        2.981     0.015    27.671     8.629
    28   6 c        2.979    -0.032    28.800     8.803
    29   6 c        2.988     0.003    27.951     8.672
    30   6 c        2.995     0.002    27.977     8.677
    31   6 c        2.975     0.013    27.715     8.636
    32   6 c        2.920    -0.045    29.118     8.849
    33   6 c        2.920    -0.041    29.009     8.832
    34   6 c        2.975     0.014    27.699     8.633
    35   6 c        2.989     0.002    27.979     8.677
    36   6 c        2.984     0.007    27.862     8.659
    37   6 c        3.833    -0.082    22.041     6.680
    38   6 c        2.978     0.014    27.702     8.634
    39   6 c        2.839     0.218    23.417     7.930
    40   6 c        2.970    -0.032    28.790     8.801
    41   6 c        2.991     0.002    27.967     8.675
    42   6 c        2.988    -0.009    28.227     8.715
    43   6 c        2.972     0.012    27.732     8.638
    44   6 c        2.920    -0.047    29.162     8.856
    45   6 c        2.919    -0.032    28.796     8.800
    46   6 c        2.909    -0.028    28.700     8.784
    47   6 c        2.994    -0.001    28.033     8.685
    48   6 c        2.974     0.014    27.693     8.632
    49   6 c        2.990     0.002    27.971     8.676
    50   6 c        2.972     0.012    27.738     8.639
    51   6 c        2.980     0.007    27.853     8.657
    52   6 c        2.974     0.013    27.726     8.637
    53   6 c        2.990     0.004    27.930     8.669
    54   6 c        2.974     0.013    27.712     8.635
    55   6 c        2.974     0.014    27.685     8.631
    56   6 c        2.912    -0.035    28.861     8.809
    57   6 c        2.920    -0.032    28.793     8.799
    58   6 c        2.919    -0.040    28.983     8.828
    59   6 c        2.919    -0.048    29.189     8.860
    60   6 c        2.919    -0.041    29.019     8.834
    61   6 c        2.911    -0.035    28.862     8.809
    62   1 h        0.926     0.033     2.539     2.492
    63   1 h        0.926     0.032     2.554     2.499
    64   1 h        0.926     0.031     2.572     2.508
    65   1 h        0.926     0.032     2.564     2.504
    66   1 h        0.926     0.032     2.557     2.501
    67   1 h        0.925     0.033     2.547     2.496
    68   1 h        0.926     0.034     2.528     2.486
    69   1 h        0.926     0.034     2.531     2.488
    70   1 h        0.926     0.032     2.557     2.501
    71   1 h        0.925     0.033     2.539     2.492
    72   1 h        0.926     0.035     2.515     2.480
    73   1 h        0.925     0.035     2.517     2.481
    74   1 h        0.926     0.033     2.548     2.496
    75   1 h        0.926     0.034     2.532     2.488
    76   1 h        0.925     0.034     2.531     2.488
    77   1 h        0.925     0.032     2.552     2.498
    78   1 h        0.925     0.033     2.541     2.493
    79   1 h        0.926     0.032     2.564     2.504
    80   1 h        0.926     0.032     2.560     2.502
    81   1 h        0.927     0.047     2.358     2.401
    82   1 h        0.924     0.053     2.279     2.361
    83   8 o        0.858    -0.435    22.391     6.344
    84   1 h        0.925     0.126     1.562     1.954

 Mol. C6AA /au·bohr⁶  :     122115.482716
 Mol. C8AA /au·bohr⁸  :    3235605.589188
 Mol. α(0) /au        :        566.728794


Wiberg/Mayer (AO) data.
largest (>0.10) Wiberg bond orders for each atom

 ---------------------------------------------------------------------------
     #   Z sym  total        # sym  WBO       # sym  WBO       # sym  WBO
 ---------------------------------------------------------------------------
     1   8 o    1.840 --     3 h    0.920     2 h    0.920
     2   1 h    0.920 --     1 o    0.920
     3   1 h    0.920 --     1 o    0.920
     4   6 c    3.973 --     9 c    1.693    11 c    1.167    70 h    0.967
     5   6 c    3.907 --    11 c    1.445    13 c    1.273    71 h    0.966
     6   6 c    3.820 --    13 c    1.359    15 c    1.291    72 h    0.966
     7   6 c    3.820 --    15 c    1.367    17 c    1.302    73 h    0.966
     8   6 c    3.848 --    19 c    1.446    17 c    1.299    74 h    0.969
     9   6 c    3.974 --     4 c    1.693    10 c    1.165    66 h    0.967
    10   6 c    3.978 --    21 c    1.450    23 c    1.203     9 c    1.165
    11   6 c    3.977 --     5 c    1.445    12 c    1.201     4 c    1.167
    12   6 c    3.939 --    25 c    1.340    11 c    1.201    23 c    1.200
    13   6 c    3.978 --     6 c    1.359     5 c    1.273    14 c    1.186
    14   6 c    3.951 --    25 c    1.404    13 c    1.186    27 c    1.155
    15   6 c    3.984 --     7 c    1.367     6 c    1.291    16 c    1.166
    16   6 c    3.951 --    27 c    1.314    29 c    1.244    15 c    1.166
    17   6 c    3.984 --     7 c    1.302     8 c    1.299    18 c    1.222
    18   6 c    3.946 --    29 c    1.266    31 c    1.228    17 c    1.222
    19   6 c    3.984 --    20 c    1.447     8 c    1.446    80 h    0.970
    20   6 c    3.845 --    19 c    1.447    31 c    1.297    62 h    0.969
    21   6 c    3.915 --    10 c    1.450    22 c    1.279    67 h    0.966
    22   6 c    3.983 --    33 c    1.355    21 c    1.279    35 c    1.186
    23   6 c    3.945 --    24 c    1.328    10 c    1.203    12 c    1.200
    24   6 c    3.963 --    35 c    1.353    23 c    1.328    37 c    1.033
    25   6 c    3.953 --    14 c    1.404    12 c    1.340    81 h    0.947
    26   1 h    0.998 --    46 c    0.970
    27   6 c    3.971 --    16 c    1.314    28 c    1.269    14 c    1.155
    28   6 c    3.925 --    41 c    1.276    27 c    1.269    39 c    1.078
    29   6 c    3.985 --    18 c    1.266    30 c    1.255    16 c    1.244
    30   6 c    3.959 --    41 c    1.278    29 c    1.255    43 c    1.190
    31   6 c    3.985 --    20 c    1.297    32 c    1.297    18 c    1.228
    32   6 c    3.809 --    43 c    1.380    31 c    1.297    63 h    0.967
    33   6 c    3.855 --    22 c    1.355    34 c    1.334    68 h    0.966
    34   6 c    3.981 --    33 c    1.334    45 c    1.288    47 c    1.197
    35   6 c    3.958 --    24 c    1.353    36 c    1.205    22 c    1.186
    36   6 c    3.970 --    47 c    1.352    35 c    1.205    49 c    1.178
    37   6 c    3.986 --    24 c    1.033    38 c    1.026    82 h    0.917
                            84 h    0.873
    38   6 c    3.960 --    49 c    1.418    51 c    1.265    37 c    1.026
    39   6 c    3.916 --    83 o    1.641    28 c    1.078    40 c    1.058
    40   6 c    3.921 --    51 c    1.292    53 c    1.291    39 c    1.058
    41   6 c    3.976 --    30 c    1.278    28 c    1.276    42 c    1.198
    42   6 c    3.894 --    53 c    1.276    55 c    1.220    41 c    1.198
    43   6 c    3.985 --    32 c    1.380    44 c    1.255    30 c    1.190
    44   6 c    3.834 --    55 c    1.436    43 c    1.255    64 h    0.967
    45   6 c    3.847 --    46 c    1.459    34 c    1.288    69 h    0.969
    46   6 c    3.975 --    45 c    1.459    57 c    1.428    26 h    0.970
    47   6 c    3.971 --    36 c    1.352    34 c    1.197    48 c    1.189
    48   6 c    3.980 --    58 c    1.316    57 c    1.313    47 c    1.189
    49   6 c    3.965 --    38 c    1.418    36 c    1.178    50 c    1.160
    50   6 c    3.982 --    58 c    1.362    59 c    1.301    49 c    1.160
    51   6 c    3.955 --    40 c    1.292    38 c    1.265    52 c    1.175
    52   6 c    3.978 --    59 c    1.393    60 c    1.251    51 c    1.175
    53   6 c    3.953 --    40 c    1.291    42 c    1.276    54 c    1.169
    54   6 c    3.975 --    60 c    1.479    53 c    1.169    61 c    1.168
    55   6 c    3.979 --    44 c    1.436    42 c    1.220    56 c    1.163
    56   6 c    3.967 --    61 c    1.694    55 c    1.163    65 h    0.968
    57   6 c    3.840 --    46 c    1.428    48 c    1.313    75 h    0.969
    58   6 c    3.815 --    50 c    1.362    48 c    1.316    76 h    0.966
    59   6 c    3.858 --    52 c    1.393    50 c    1.301    77 h    0.966
    60   6 c    3.905 --    54 c    1.479    52 c    1.251    78 h    0.966
    61   6 c    3.973 --    56 c    1.694    54 c    1.168    79 h    0.967
    62   1 h    0.998 --    20 c    0.969
    63   1 h    0.998 --    32 c    0.967
    64   1 h    0.998 --    44 c    0.967
    65   1 h    0.997 --    56 c    0.968
    66   1 h    0.997 --     9 c    0.967
    67   1 h    0.997 --    21 c    0.966
    68   1 h    0.997 --    33 c    0.966
    69   1 h    0.998 --    45 c    0.969
    70   1 h    0.997 --     4 c    0.967
    71   1 h    0.997 --     5 c    0.966
    72   1 h    0.997 --     6 c    0.966
    73   1 h    0.997 --     7 c    0.966
    74   1 h    0.998 --     8 c    0.969
    75   1 h    0.998 --    57 c    0.969
    76   1 h    0.997 --    58 c    0.966
    77   1 h    0.997 --    59 c    0.966
    78   1 h    0.997 --    60 c    0.966
    79   1 h    0.997 --    61 c    0.967
    80   1 h    0.998 --    19 c    0.970
    81   1 h    0.997 --    25 c    0.947
    82   1 h    0.992 --    37 c    0.917
    83   8 o    1.961 --    39 c    1.641
    84   1 h    0.980 --    37 c    0.873
 ---------------------------------------------------------------------------

Topologies differ in total number of bonds
Writing topology from bond orders to xtbtopo.mol

molecular dipole:
                 x           y           z       tot (Debye)
 q only:       -0.347       0.129      -0.953
   full:       -0.545       0.473      -0.886       2.903
molecular quadrupole (traceless):
                xx          xy          yy          xz          yz          zz
 q only:       42.666     -11.596      21.691      -8.710     -24.434     -64.357
  q+dip:       57.408     -12.400      38.671     -10.152     -20.712     -96.080
   full:       46.109     -11.550      28.623      -9.197     -18.914     -74.732

           -------------------------------------------------
          |                Geometry Summary                 |
           -------------------------------------------------

      molecular mass/u    :      741.8092749
   center of mass at/Å    :        3.5808488       5.5651209       9.7755423
  moments of inertia/u·Å² :        0.8124860E+04   0.1633060E+05   0.2146266E+05
rotational constants/cm⁻¹ :        0.2074821E-02   0.1032273E-02   0.7854399E-03

 * 91 selected distances

     #   Z          #   Z                                           value/Å
     1   8 o        2   1 h                                       0.9591050
     1   8 o        3   1 h                                       0.9591041 (min)
     4   6 c        9   6 c                                       1.3481672
     5   6 c       11   6 c                                       1.3868072
    11   6 c       12   6 c                                       1.4338886
     5   6 c       13   6 c                                       1.4135965
     6   6 c       13   6 c                                       1.3958630
    13   6 c       14   6 c                                       1.4256018
     6   6 c       15   6 c                                       1.4112600
     7   6 c       15   6 c                                       1.3940642
     7   6 c       17   6 c                                       1.4061631
     8   6 c       17   6 c                                       1.4061556
    17   6 c       18   6 c                                       1.4231168
     8   6 c       19   6 c                                       1.3823456
    19   6 c       20   6 c                                       1.3820685
    10   6 c       21   6 c                                       1.3830988
    21   6 c       22   6 c                                       1.4108056
    10   6 c       23   6 c                                       1.4312600
    23   6 c       24   6 c                                       1.4094020
    12   6 c       25   6 c                                       1.4025810
    14   6 c       25   6 c                                       1.3840516
    16   6 c       27   6 c                                       1.4010420
    27   6 c       28   6 c                                       1.4175522
    16   6 c       29   6 c                                       1.4164598
    18   6 c       29   6 c                                       1.4099532
    29   6 c       30   6 c                                       1.4152388
    18   6 c       31   6 c                                       1.4216525
    20   6 c       31   6 c                                       1.4065784
    31   6 c       32   6 c                                       1.4066107
    22   6 c       33   6 c                                       1.3946892
    33   6 c       34   6 c                                       1.4001390
    22   6 c       35   6 c                                       1.4283931
    24   6 c       35   6 c                                       1.3931307
    35   6 c       36   6 c                                       1.4311059
    24   6 c       37   6 c                                       1.4730494
    37   6 c       38   6 c                                       1.4747403 (max)
    28   6 c       41   6 c                                       1.4071519
    30   6 c       41   6 c                                       1.4078030
    41   6 c       42   6 c                                       1.4267134
    30   6 c       43   6 c                                       1.4284696
    32   6 c       43   6 c                                       1.3912698
    43   6 c       44   6 c                                       1.4150400
    34   6 c       45   6 c                                       1.4082951
    26   1 h       46   6 c                                       1.0805672
    45   6 c       46   6 c                                       1.3797151
    34   6 c       47   6 c                                       1.4303526
    36   6 c       47   6 c                                       1.3964819
    47   6 c       48   6 c                                       1.4326531
    36   6 c       49   6 c                                       1.4355453
    38   6 c       49   6 c                                       1.3779442
    49   6 c       50   6 c                                       1.4344806
    38   6 c       51   6 c                                       1.4162245
    40   6 c       51   6 c                                       1.4190852
    40   6 c       53   6 c                                       1.4099521
    42   6 c       53   6 c                                       1.4122803
    53   6 c       54   6 c                                       1.4347897
    42   6 c       55   6 c                                       1.4221496
    44   6 c       55   6 c                                       1.3828406
    46   6 c       57   6 c                                       1.3844489
    48   6 c       57   6 c                                       1.4036632
    48   6 c       58   6 c                                       1.4038938
    50   6 c       58   6 c                                       1.3935221
    50   6 c       59   6 c                                       1.4080319
    52   6 c       59   6 c                                       1.3928753
    52   6 c       60   6 c                                       1.4166010
    54   6 c       60   6 c                                       1.3767939
    54   6 c       61   6 c                                       1.4339830
    56   6 c       61   6 c                                       1.3486868
    20   6 c       62   1 h                                       1.0803454
    32   6 c       63   1 h                                       1.0810662
    44   6 c       64   1 h                                       1.0811669
    56   6 c       65   1 h                                       1.0810003
     9   6 c       66   1 h                                       1.0809911
    21   6 c       67   1 h                                       1.0814563
    33   6 c       68   1 h                                       1.0812076
    45   6 c       69   1 h                                       1.0803866
     4   6 c       70   1 h                                       1.0810305
     5   6 c       71   1 h                                       1.0816922
     6   6 c       72   1 h                                       1.0810257
     7   6 c       73   1 h                                       1.0813401
     8   6 c       74   1 h                                       1.0802770
    57   6 c       75   1 h                                       1.0804677
    58   6 c       76   1 h                                       1.0812628
    59   6 c       77   1 h                                       1.0814032
    60   6 c       78   1 h                                       1.0816178
    61   6 c       79   1 h                                       1.0811276
    19   6 c       80   1 h                                       1.0806170
    25   6 c       81   1 h                                       1.0690145
    37   6 c       82   1 h                                       1.0944998
    39   6 c       83   8 o                                       1.2331825
    37   6 c       84   1 h                                       1.0877835

 * 4 distinct bonds (by element types)

   Z      Z             #   av. dist./Å        max./Å        min./Å
   1 H    6 C          23     1.0813629     1.0944998     1.0690145
   6 C    6 C          65     1.4084980     1.4747403     1.3481672
   1 H    8 O           2     0.9591046     0.9591050     0.9591041
   6 C    8 O           1     1.2331825     1.2331825     1.2331825


optimized geometry written to: xtbopt.coord


           -------------------------------------------------
          | TOTAL ENERGY             -143.061214815561 Eh   |
          | GRADIENT NORM               0.000247209457 Eh/α |
          | HOMO-LUMO GAP               0.250812631579 eV   |
           -------------------------------------------------

------------------------------------------------------------------------
 * finished run on 2024/12/05 at 16:17:49.908     
------------------------------------------------------------------------
 total:
 * wall-time:     0 d,  0 h,  0 min,  1.274 sec
 *  cpu-time:     0 d,  0 h,  0 min,  4.033 sec
 * ratio c/w:     3.165 speedup
 SCF:
 * wall-time:     0 d,  0 h,  0 min,  0.793 sec
 *  cpu-time:     0 d,  0 h,  0 min,  2.047 sec
 * ratio c/w:     2.581 speedup
 ANC optimizer:
 * wall-time:     0 d,  0 h,  0 min,  0.457 sec
 *  cpu-time:     0 d,  0 h,  0 min,  1.839 sec
 * ratio c/w:     4.024 speedup

