      -----------------------------------------------------------      
     |                   =====================                   |     
     |                           x T B                           |     
     |                   =====================                   |     
     |                         S. Grimme                         |     
     |          Mulliken Center for Theoretical Chemistry        |     
     |                    University of Bonn                     |     
      -----------------------------------------------------------      

   * xtb version 6.7.1 (edcfbbe) compiled by 'conda@3ef47c1a292c' on 2024-11-25

   xtb is free software: you can redistribute it and/or modify it under
   the terms of the GNU Lesser General Public License as published by
   the Free Software Foundation, either version 3 of the License, or
   (at your option) any later version.
   
   xtb is distributed in the hope that it will be useful,
   but WITHOUT ANY WARRANTY; without even the implied warranty of
   MERCHANTABILITY or FITNESS FOR A PARTICULAR PURPOSE.  See the
   GNU Lesser General Public License for more details.
   
   Cite this work as:
   * C. Bannwarth, E. Caldeweyher, S. Ehlert, A. Hansen, P. Pracht,
     J. Seibert, S. Spicher, S. Grimme, WIREs Comput. Mol. Sci., 2020, 11,
     e01493. DOI: 10.1002/wcms.1493
   
   for GFN2-xTB:
   * C. Bannwarth, S. Ehlert and S. Grimme., J. Chem. Theory Comput., 2019,
     15, 1652-1671. DOI: 10.1021/acs.jctc.8b01176
   for GFN1-xTB:
   * S. Grimme, C. Bannwarth, P. Shushkov, J. Chem. Theory Comput., 2017,
     13, 1989-2009. DOI: 10.1021/acs.jctc.7b00118
   for GFN0-xTB:
   * P. Pracht, E. Caldeweyher, S. Ehlert, S. Grimme, ChemRxiv, 2019, preprint.
     DOI: 10.26434/chemrxiv.8326202.v1
   for GFN-FF:
   * S. Spicher and S. Grimme, Angew. Chem. Int. Ed., 2020, 59, 15665-15673.
     DOI: 10.1002/anie.202004239
   
   for ALPB and GBSA implicit solvation:
   * S. Ehlert, M. Stahn, S. Spicher, S. Grimme, J. Chem. Theory Comput.,
     2021, 17, 4250-4261. DOI: 10.1021/acs.jctc.1c00471
   
   for ddCOSMO and CPCM-X implicit solvation:
   * M. Stahn, S. Ehlert, S. Grimme, J. Phys. Chem. A,
     2023, XX, XXXX-XXXX. DOI: 10.1021/acs.jpca.3c04382
   
   for DFT-D4:
   * E. Caldeweyher, C. Bannwarth and S. Grimme, J. Chem. Phys., 2017,
     147, 034112. DOI: 10.1063/1.4993215
   * E. Caldeweyher, S. Ehlert, A. Hansen, H. Neugebauer, S. Spicher,
     C. Bannwarth and S. Grimme, J. Chem. Phys., 2019, 150, 154122.
     DOI: 10.1063/1.5090222
   * E. Caldeweyher, J.-M. Mewes, S. Ehlert and S. Grimme, Phys. Chem. Chem. Phys.
     2020, 22, 8499-8512. DOI: 10.1039/D0CP00502A
   
   for sTDA-xTB:
   * S. Grimme and C. Bannwarth, J. Chem. Phys., 2016, 145, 054103.
     DOI: 10.1063/1.4959605
   
   in the mass-spec context:
   * V. Asgeirsson, C. Bauer and S. Grimme, Chem. Sci., 2017, 8, 4879.
     DOI: 10.1039/c7sc00601b
   * J. Koopman and S. Grimme, ACS Omega 2019, 4, 12, 15120-15133.
     DOI: 10.1021/acsomega.9b02011
   
   for metadynamics refer to:
   * S. Grimme, J. Chem. Theory Comput., 2019, 155, 2847-2862
     DOI: 10.1021/acs.jctc.9b00143
   
   for SPH calculations refer to:
   * S. Spicher and S. Grimme, J. Chem. Theory Comput., 2021, 17, 1701-1714
     DOI: 10.1021/acs.jctc.0c01306
   
   for ONIOM refer to:
   * C. Plett, A. Katbashev, S. Ehlert, S. Grimme, M. Bursch,
     Phys. Chem. Chem. Phys., 2023, 25, 17860-17868. DOI: 10.1039/D3CP02178E
   
   for DIPRO refer to:
   * J. Kohn, N. Gildemeister, S. Grimme, D. Fazzi, A. Hansen,
     J. Chem. Phys., 2023, just accepted.
   
   for PTB refer to:
   * S. Grimme, M. Mueller, A. Hansen, J. Chem. Phys., 2023, 158, 124111.
     DOI: 10.1063/5.0137838
   
   with help from (in alphabetical order)
   P. Atkinson, C. Bannwarth, F. Bohle, G. Brandenburg, E. Caldeweyher
   M. Checinski, S. Dohm, S. Ehlert, S. Ehrlich, I. Gerasimov, C. Hölzer
   A. Katbashev, J. Kohn, J. Koopman, C. Lavigne, S. Lehtola, F. März, M. Müller,
   F. Musil, H. Neugebauer, J. Pisarek, C. Plett, P. Pracht, F. Pultar,
   J. Seibert, P. Shushkov, S. Spicher, M. Stahn, M. Steiner, T. Strunk,
   J. Stückrath, T. Rose, and J. Unsleber
   
 * started run on 2024/11/28 at 16:27:22.308     
   ID    Z sym.   atoms
    1    8 o      1, 83
    2    1 h      2, 3, 26, 62-82, 84
    3    6 c      4-25, 27-61

           -------------------------------------------------
          |                Calculation Setup                |
           -------------------------------------------------

          program call               : /home/olli/anaconda3/bin/xtb interaction
          coordinate file            : interaction
          omp threads                :                    16


molecular fragmentation (1/2 indicates fragments):
111222222222222222222222222222222222222222222222222222222222222222222222
222222222222
# atoms in fragment 1/2:     3    81
 fragment masses (1/2) :       18.02      723.79
CMA distance (Bohr)    :  23.222
constraining FC (au)   :  0.0500

           -------------------------------------------------
          |                 G F N 2 - x T B                 |
           -------------------------------------------------

        Reference                      10.1021/acs.jctc.8b01176
      * Hamiltonian:
        H0-scaling (s, p, d)           1.850000    2.230000    2.230000
        zeta-weighting                 0.500000
      * Dispersion:
        s8                             2.700000
        a1                             0.520000
        a2                             5.000000
        s9                             5.000000
      * Repulsion:
        kExp                           1.500000    1.000000
        rExp                           1.000000
      * Coulomb:
        alpha                          2.000000
        third order                    shell-resolved
        anisotropic                    true
        a3                             3.000000
        a5                             4.000000
        cn-shift                       1.200000
        cn-exp                         4.000000
        max-rad                        5.000000


          ...................................................
          :                      SETUP                      :
          :.................................................:
          :  # basis functions                 261          :
          :  # atomic orbitals                 261          :
          :  # shells                          143          :
          :  # electrons                       265          :
          :  max. iterations                   250          :
          :  Hamiltonian                  GFN2-xTB          :
          :  restarted?                      false          :
          :  GBSA solvation                  false          :
          :  PC potential                    false          :
          :  electronic temp.          300.0000000     K    :
          :  accuracy                    1.0000000          :
          :  -> integral cutoff          0.2500000E+02      :
          :  -> integral neglect         0.1000000E-07      :
          :  -> SCF convergence          0.1000000E-05 Eh   :
          :  -> wf. convergence          0.1000000E-03 e    :
          :  Broyden damping             0.4000000          :
          :  net charge                          0          :
          :  unpaired electrons                  0          :
          ...................................................

 iter      E             dE          RMSdq      gap      omega  full diag
   1   -145.6287556 -0.145629E+03  0.487E+00    0.29       0.0  T
   2   -145.4362374  0.192518E+00  0.302E+00    0.31       1.0  T
   3   -143.5340491  0.190219E+01  0.342E+00    0.32       1.0  T
   4   -145.3486986 -0.181465E+01  0.139E+00    0.74       1.0  T
   5   -145.4307609 -0.820623E-01  0.142E+00    0.85       1.0  T
   6   -145.6230477 -0.192287E+00  0.843E-01    0.38       1.0  T
   7   -145.6619381 -0.388904E-01  0.612E-01    0.32       1.0  T
   8   -145.6908021 -0.288640E-01  0.412E-01    0.32       1.0  T
   9   -145.7001581 -0.935597E-02  0.246E-01    0.21       1.0  T
  10   -145.7061452 -0.598711E-02  0.211E-01    0.27       1.0  T
  11   -145.7115221 -0.537692E-02  0.396E-02    0.25       1.0  T
  12   -145.7111633  0.358814E-03  0.563E-02    0.25       1.0  T
  13   -145.7116348 -0.471485E-03  0.989E-03    0.25       1.1  T
  14   -145.7116370 -0.226370E-05  0.756E-03    0.25       1.4  T
  15   -145.7116445 -0.748364E-05  0.253E-03    0.25       4.3  T
  16   -145.7116442  0.295366E-06  0.238E-03    0.25       4.6  T
  17   -145.7116450 -0.782551E-06  0.626E-04    0.25      17.4  T
  18   -145.7116450 -0.174689E-07  0.472E-04    0.25      23.1  T

   *** convergence criteria satisfied after 18 iterations ***

         #    Occupation            Energy/Eh            Energy/eV
      -------------------------------------------------------------
         1        2.0000           -0.6819382             -18.5565
       ...           ...                  ...                  ...
       127        2.0000           -0.3858651             -10.4999
       128        2.0000           -0.3765749             -10.2471
       129        2.0000           -0.3703458             -10.0776
       130        2.0000           -0.3644416              -9.9170
       131        2.0000           -0.3521754              -9.5832
       132        1.8276           -0.3342315              -9.0949
       133        1.1645           -0.3312470              -9.0137 (HOMO)
       134        0.0079           -0.3220287              -8.7628 (LUMO)
       135                         -0.2926356              -7.9630
       136                         -0.2724434              -7.4136
       137                         -0.2669498              -7.2641
       138                         -0.2514671              -6.8428
       ...                                ...                  ...
       261                          0.7505691              20.4240
      -------------------------------------------------------------
                  HL-Gap            0.0092183 Eh            0.2508 eV
             Fermi-level           -0.3296783 Eh           -8.9710 eV

 SCC (total)                   0 d,  0 h,  0 min,  0.874 sec
 SCC setup                      ...        0 min,  0.000 sec (  0.043%)
 Dispersion                     ...        0 min,  0.003 sec (  0.369%)
 classical contributions        ...        0 min,  0.000 sec (  0.022%)
 integral evaluation            ...        0 min,  0.013 sec (  1.535%)
 iterations                     ...        0 min,  0.787 sec ( 90.055%)
 molecular gradient             ...        0 min,  0.042 sec (  4.776%)
 printout                       ...        0 min,  0.028 sec (  3.196%)

         :::::::::::::::::::::::::::::::::::::::::::::::::::::
         ::                     SUMMARY                     ::
         :::::::::::::::::::::::::::::::::::::::::::::::::::::
         :: total energy            -143.061214801591 Eh    ::
         :: gradient norm              0.000246103387 Eh/a0 ::
         :: HOMO-LUMO gap              0.250842366544 eV    ::
         ::.................................................::
         :: SCC energy              -145.713228538607 Eh    ::
         :: -> isotropic ES            0.067175539905 Eh    ::
         :: -> anisotropic ES          0.005102678073 Eh    ::
         :: -> anisotropic XC          0.060650292116 Eh    ::
         :: -> dispersion             -0.149789098215 Eh    ::
         :: repulsion energy           2.652013737016 Eh    ::
         :: add. restraining           0.000000000000 Eh    ::
         :: total charge              -0.000000000000 e     ::
         :::::::::::::::::::::::::::::::::::::::::::::::::::::

           -------------------------------------------------
          |                Property Printout                |
           -------------------------------------------------

    * Orbital Energies and Occupations

         #    Occupation            Energy/Eh            Energy/eV
      -------------------------------------------------------------
         1        2.0000           -0.6819382             -18.5565
       ...           ...                  ...                  ...
       121        2.0000           -0.4054699             -11.0334
       122        2.0000           -0.4038674             -10.9898
       123        2.0000           -0.3996438             -10.8749
       124        2.0000           -0.3982941             -10.8381
       125        2.0000           -0.3967882             -10.7972
       126        2.0000           -0.3946196             -10.7381
       127        2.0000           -0.3858651             -10.4999
       128        2.0000           -0.3765749             -10.2471
       129        2.0000           -0.3703458             -10.0776
       130        2.0000           -0.3644416              -9.9170
       131        2.0000           -0.3521754              -9.5832
       132        1.8276           -0.3342315              -9.0949
       133        1.1645           -0.3312470              -9.0137 (HOMO)
       134        0.0079           -0.3220287              -8.7628 (LUMO)
       135                         -0.2926356              -7.9630
       136                         -0.2724434              -7.4136
       137                         -0.2669498              -7.2641
       138                         -0.2514671              -6.8428
       139                         -0.2395675              -6.5190
       140                         -0.2367554              -6.4424
       141                         -0.2305062              -6.2724
       142                         -0.2231566              -6.0724
       143                         -0.2180324              -5.9330
       144                         -0.2116196              -5.7585
       ...                                ...                  ...
       261                          0.7505691              20.4240
      -------------------------------------------------------------
                  HL-Gap            0.0092183 Eh            0.2508 eV
             Fermi-level           -0.3296783 Eh           -8.9710 eV

     #   Z          covCN         q      C6AA      α(0)
     1   8 o        1.611    -0.565    24.358     6.661
     2   1 h        0.805     0.282     0.776     1.384
     3   1 h        0.805     0.282     0.777     1.384
     4   6 c        2.911    -0.034    28.851     8.808
     5   6 c        2.919    -0.042    29.046     8.838
     6   6 c        2.918    -0.039    28.970     8.826
     7   6 c        2.921    -0.038    28.946     8.823
     8   6 c        2.919    -0.034    28.856     8.809
     9   6 c        2.911    -0.034    28.855     8.808
    10   6 c        2.977     0.014    27.690     8.632
    11   6 c        2.980     0.016    27.652     8.626
    12   6 c        2.971     0.013    27.721     8.636
    13   6 c        2.973     0.016    27.646     8.625
    14   6 c        2.987     0.015    27.670     8.629
    15   6 c        2.970     0.014    27.703     8.633
    16   6 c        2.996    -0.000    28.029     8.685
    17   6 c        2.975     0.014    27.708     8.634
    18   6 c        2.998     0.001    27.992     8.679
    19   6 c        2.910    -0.029    28.714     8.787
    20   6 c        2.919    -0.033    28.828     8.805
    21   6 c        2.921    -0.047    29.178     8.858
    22   6 c        2.974     0.012    27.748     8.641
    23   6 c        2.975    -0.006    28.156     8.704
    24   6 c        2.975     0.010    27.782     8.646
    25   6 c        2.928    -0.042    29.033     8.836
    26   1 h        0.926     0.032     2.552     2.498
    27   6 c        2.981     0.015    27.671     8.629
    28   6 c        2.979    -0.032    28.800     8.803
    29   6 c        2.988     0.003    27.951     8.672
    30   6 c        2.995     0.002    27.977     8.677
    31   6 c        2.975     0.013    27.715     8.636
    32   6 c        2.920    -0.045    29.118     8.849
    33   6 c        2.920    -0.041    29.009     8.832
    34   6 c        2.975     0.014    27.699     8.633
    35   6 c        2.989     0.002    27.979     8.677
    36   6 c        2.984     0.007    27.862     8.659
    37   6 c        3.833    -0.082    22.041     6.680
    38   6 c        2.978     0.014    27.702     8.634
    39   6 c        2.839     0.218    23.417     7.930
    40   6 c        2.970    -0.032    28.790     8.801
    41   6 c        2.991     0.002    27.967     8.675
    42   6 c        2.988    -0.009    28.227     8.715
    43   6 c        2.972     0.012    27.732     8.638
    44   6 c        2.920    -0.047    29.162     8.856
    45   6 c        2.919    -0.032    28.796     8.800
    46   6 c        2.909    -0.028    28.700     8.784
    47   6 c        2.994    -0.001    28.033     8.685
    48   6 c        2.974     0.014    27.693     8.632
    49   6 c        2.990     0.002    27.971     8.676
    50   6 c        2.972     0.012    27.738     8.639
    51   6 c        2.980     0.007    27.853     8.657
    52   6 c        2.974     0.013    27.726     8.637
    53   6 c        2.990     0.004    27.930     8.669
    54   6 c        2.974     0.013    27.712     8.635
    55   6 c        2.974     0.014    27.685     8.631
    56   6 c        2.912    -0.035    28.861     8.809
    57   6 c        2.920    -0.032    28.793     8.799
    58   6 c        2.919    -0.040    28.984     8.828
    59   6 c        2.919    -0.048    29.189     8.860
    60   6 c        2.919    -0.041    29.019     8.834
    61   6 c        2.911    -0.035    28.862     8.809
    62   1 h        0.926     0.033     2.539     2.492
    63   1 h        0.926     0.032     2.554     2.499
    64   1 h        0.926     0.031     2.572     2.508
    65   1 h        0.926     0.032     2.564     2.504
    66   1 h        0.926     0.032     2.557     2.501
    67   1 h        0.925     0.033     2.547     2.496
    68   1 h        0.926     0.034     2.528     2.486
    69   1 h        0.926     0.034     2.531     2.488
    70   1 h        0.926     0.032     2.557     2.501
    71   1 h        0.925     0.033     2.539     2.492
    72   1 h        0.926     0.035     2.515     2.480
    73   1 h        0.925     0.035     2.517     2.481
    74   1 h        0.926     0.033     2.548     2.496
    75   1 h        0.926     0.034     2.532     2.488
    76   1 h        0.925     0.034     2.531     2.488
    77   1 h        0.925     0.032     2.552     2.498
    78   1 h        0.925     0.033     2.541     2.493
    79   1 h        0.926     0.032     2.564     2.504
    80   1 h        0.926     0.032     2.560     2.502
    81   1 h        0.927     0.047     2.358     2.401
    82   1 h        0.924     0.053     2.279     2.361
    83   8 o        0.858    -0.435    22.391     6.344
    84   1 h        0.925     0.126     1.562     1.954

 Mol. C6AA /au·bohr⁶  :     122115.472144
 Mol. C8AA /au·bohr⁸  :    3235605.525052
 Mol. α(0) /au        :        566.728769


Wiberg/Mayer (AO) data.
largest (>0.10) Wiberg bond orders for each atom

 ---------------------------------------------------------------------------
     #   Z sym  total        # sym  WBO       # sym  WBO       # sym  WBO
 ---------------------------------------------------------------------------
     1   8 o    1.840 --     3 h    0.920     2 h    0.920
     2   1 h    0.920 --     1 o    0.920
     3   1 h    0.920 --     1 o    0.920
     4   6 c    3.973 --     9 c    1.693    11 c    1.167    70 h    0.967
     5   6 c    3.907 --    11 c    1.445    13 c    1.273    71 h    0.966
     6   6 c    3.820 --    13 c    1.359    15 c    1.291    72 h    0.966
     7   6 c    3.820 --    15 c    1.367    17 c    1.302    73 h    0.966
     8   6 c    3.848 --    19 c    1.446    17 c    1.299    74 h    0.969
     9   6 c    3.974 --     4 c    1.693    10 c    1.165    66 h    0.967
    10   6 c    3.978 --    21 c    1.450    23 c    1.203     9 c    1.165
    11   6 c    3.977 --     5 c    1.445    12 c    1.201     4 c    1.167
    12   6 c    3.939 --    25 c    1.340    11 c    1.201    23 c    1.200
    13   6 c    3.978 --     6 c    1.359     5 c    1.273    14 c    1.186
    14   6 c    3.951 --    25 c    1.404    13 c    1.186    27 c    1.155
    15   6 c    3.984 --     7 c    1.367     6 c    1.291    16 c    1.166
    16   6 c    3.951 --    27 c    1.314    29 c    1.244    15 c    1.166
    17   6 c    3.984 --     7 c    1.302     8 c    1.299    18 c    1.222
    18   6 c    3.946 --    29 c    1.266    31 c    1.228    17 c    1.222
    19   6 c    3.984 --    20 c    1.447     8 c    1.446    80 h    0.970
    20   6 c    3.845 --    19 c    1.447    31 c    1.297    62 h    0.969
    21   6 c    3.915 --    10 c    1.450    22 c    1.279    67 h    0.966
    22   6 c    3.983 --    33 c    1.355    21 c    1.279    35 c    1.186
    23   6 c    3.945 --    24 c    1.328    10 c    1.203    12 c    1.200
    24   6 c    3.963 --    35 c    1.353    23 c    1.328    37 c    1.033
    25   6 c    3.953 --    14 c    1.404    12 c    1.340    81 h    0.947
    26   1 h    0.998 --    46 c    0.970
    27   6 c    3.971 --    16 c    1.314    28 c    1.269    14 c    1.155
    28   6 c    3.925 --    41 c    1.276    27 c    1.269    39 c    1.078
    29   6 c    3.985 --    18 c    1.266    30 c    1.255    16 c    1.244
    30   6 c    3.959 --    41 c    1.278    29 c    1.255    43 c    1.190
    31   6 c    3.985 --    20 c    1.297    32 c    1.297    18 c    1.228
    32   6 c    3.809 --    43 c    1.380    31 c    1.297    63 h    0.967
    33   6 c    3.855 --    22 c    1.355    34 c    1.334    68 h    0.966
    34   6 c    3.981 --    33 c    1.334    45 c    1.288    47 c    1.197
    35   6 c    3.958 --    24 c    1.353    36 c    1.205    22 c    1.186
    36   6 c    3.970 --    47 c    1.352    35 c    1.205    49 c    1.178
    37   6 c    3.986 --    24 c    1.033    38 c    1.026    82 h    0.917
                            84 h    0.873
    38   6 c    3.960 --    49 c    1.418    51 c    1.265    37 c    1.026
    39   6 c    3.916 --    83 o    1.641    28 c    1.078    40 c    1.058
    40   6 c    3.921 --    51 c    1.292    53 c    1.291    39 c    1.058
    41   6 c    3.976 --    30 c    1.278    28 c    1.276    42 c    1.198
    42   6 c    3.894 --    53 c    1.276    55 c    1.220    41 c    1.198
    43   6 c    3.985 --    32 c    1.380    44 c    1.255    30 c    1.190
    44   6 c    3.834 --    55 c    1.436    43 c    1.255    64 h    0.967
    45   6 c    3.847 --    46 c    1.459    34 c    1.288    69 h    0.969
    46   6 c    3.975 --    45 c    1.459    57 c    1.428    26 h    0.970
    47   6 c    3.971 --    36 c    1.352    34 c    1.197    48 c    1.189
    48   6 c    3.980 --    58 c    1.316    57 c    1.313    47 c    1.189
    49   6 c    3.965 --    38 c    1.418    36 c    1.178    50 c    1.160
    50   6 c    3.982 --    58 c    1.362    59 c    1.301    49 c    1.160
    51   6 c    3.955 --    40 c    1.292    38 c    1.265    52 c    1.175
    52   6 c    3.978 --    59 c    1.393    60 c    1.251    51 c    1.175
    53   6 c    3.953 --    40 c    1.291    42 c    1.276    54 c    1.169
    54   6 c    3.975 --    60 c    1.479    53 c    1.169    61 c    1.168
    55   6 c    3.979 --    44 c    1.436    42 c    1.220    56 c    1.163
    56   6 c    3.967 --    61 c    1.694    55 c    1.163    65 h    0.968
    57   6 c    3.840 --    46 c    1.428    48 c    1.313    75 h    0.969
    58   6 c    3.815 --    50 c    1.362    48 c    1.316    76 h    0.966
    59   6 c    3.858 --    52 c    1.393    50 c    1.301    77 h    0.966
    60   6 c    3.905 --    54 c    1.479    52 c    1.251    78 h    0.966
    61   6 c    3.973 --    56 c    1.694    54 c    1.168    79 h    0.967
    62   1 h    0.998 --    20 c    0.969
    63   1 h    0.998 --    32 c    0.967
    64   1 h    0.998 --    44 c    0.967
    65   1 h    0.997 --    56 c    0.968
    66   1 h    0.997 --     9 c    0.967
    67   1 h    0.997 --    21 c    0.966
    68   1 h    0.997 --    33 c    0.966
    69   1 h    0.998 --    45 c    0.969
    70   1 h    0.997 --     4 c    0.967
    71   1 h    0.997 --     5 c    0.966
    72   1 h    0.997 --     6 c    0.966
    73   1 h    0.997 --     7 c    0.966
    74   1 h    0.998 --     8 c    0.969
    75   1 h    0.998 --    57 c    0.969
    76   1 h    0.997 --    58 c    0.966
    77   1 h    0.997 --    59 c    0.966
    78   1 h    0.997 --    60 c    0.966
    79   1 h    0.997 --    61 c    0.967
    80   1 h    0.998 --    19 c    0.970
    81   1 h    0.997 --    25 c    0.947
    82   1 h    0.992 --    37 c    0.917
    83   8 o    1.961 --    39 c    1.641
    84   1 h    0.980 --    37 c    0.873
 ---------------------------------------------------------------------------

Topologies differ in total number of bonds
Writing topology from bond orders to xtbtopo.mol

molecular dipole:
                 x           y           z       tot (Debye)
 q only:       -0.347       0.129      -0.953
   full:       -0.545       0.473      -0.886       2.903
molecular quadrupole (traceless):
                xx          xy          yy          xz          yz          zz
 q only:       42.665     -11.597      21.693      -8.712     -24.434     -64.357
  q+dip:       57.407     -12.399      38.672     -10.152     -20.711     -96.079
   full:       46.108     -11.549      28.623      -9.197     -18.914     -74.731


           -------------------------------------------------
          | TOTAL ENERGY             -143.061214801591 Eh   |
          | GRADIENT NORM               0.000246103387 Eh/α |
          | HOMO-LUMO GAP               0.250842366544 eV   |
           -------------------------------------------------

------------------------------------------------------------------------
 * finished run on 2024/11/28 at 16:27:23.208     
------------------------------------------------------------------------
 total:
 * wall-time:     0 d,  0 h,  0 min,  0.900 sec
 *  cpu-time:     0 d,  0 h,  0 min,  2.554 sec
 * ratio c/w:     2.838 speedup
 SCF:
 * wall-time:     0 d,  0 h,  0 min,  0.875 sec
 *  cpu-time:     0 d,  0 h,  0 min,  2.411 sec
 * ratio c/w:     2.755 speedup

