      -----------------------------------------------------------      
     |                   =====================                   |     
     |                           x T B                           |     
     |                   =====================                   |     
     |                         S. Grimme                         |     
     |          Mulliken Center for Theoretical Chemistry        |     
     |                    University of Bonn                     |     
      -----------------------------------------------------------      

   * xtb version 6.7.1 (edcfbbe) compiled by 'conda@3ef47c1a292c' on 2024-11-25

   xtb is free software: you can redistribute it and/or modify it under
   the terms of the GNU Lesser General Public License as published by
   the Free Software Foundation, either version 3 of the License, or
   (at your option) any later version.
   
   xtb is distributed in the hope that it will be useful,
   but WITHOUT ANY WARRANTY; without even the implied warranty of
   MERCHANTABILITY or FITNESS FOR A PARTICULAR PURPOSE.  See the
   GNU Lesser General Public License for more details.
   
   Cite this work as:
   * C. Bannwarth, E. Caldeweyher, S. Ehlert, A. Hansen, P. Pracht,
     J. Seibert, S. Spicher, S. Grimme, WIREs Comput. Mol. Sci., 2020, 11,
     e01493. DOI: 10.1002/wcms.1493
   
   for GFN2-xTB:
   * C. Bannwarth, S. Ehlert and S. Grimme., J. Chem. Theory Comput., 2019,
     15, 1652-1671. DOI: 10.1021/acs.jctc.8b01176
   for GFN1-xTB:
   * S. Grimme, C. Bannwarth, P. Shushkov, J. Chem. Theory Comput., 2017,
     13, 1989-2009. DOI: 10.1021/acs.jctc.7b00118
   for GFN0-xTB:
   * P. Pracht, E. Caldeweyher, S. Ehlert, S. Grimme, ChemRxiv, 2019, preprint.
     DOI: 10.26434/chemrxiv.8326202.v1
   for GFN-FF:
   * S. Spicher and S. Grimme, Angew. Chem. Int. Ed., 2020, 59, 15665-15673.
     DOI: 10.1002/anie.202004239
   
   for ALPB and GBSA implicit solvation:
   * S. Ehlert, M. Stahn, S. Spicher, S. Grimme, J. Chem. Theory Comput.,
     2021, 17, 4250-4261. DOI: 10.1021/acs.jctc.1c00471
   
   for ddCOSMO and CPCM-X implicit solvation:
   * M. Stahn, S. Ehlert, S. Grimme, J. Phys. Chem. A,
     2023, XX, XXXX-XXXX. DOI: 10.1021/acs.jpca.3c04382
   
   for DFT-D4:
   * E. Caldeweyher, C. Bannwarth and S. Grimme, J. Chem. Phys., 2017,
     147, 034112. DOI: 10.1063/1.4993215
   * E. Caldeweyher, S. Ehlert, A. Hansen, H. Neugebauer, S. Spicher,
     C. Bannwarth and S. Grimme, J. Chem. Phys., 2019, 150, 154122.
     DOI: 10.1063/1.5090222
   * E. Caldeweyher, J.-M. Mewes, S. Ehlert and S. Grimme, Phys. Chem. Chem. Phys.
     2020, 22, 8499-8512. DOI: 10.1039/D0CP00502A
   
   for sTDA-xTB:
   * S. Grimme and C. Bannwarth, J. Chem. Phys., 2016, 145, 054103.
     DOI: 10.1063/1.4959605
   
   in the mass-spec context:
   * V. Asgeirsson, C. Bauer and S. Grimme, Chem. Sci., 2017, 8, 4879.
     DOI: 10.1039/c7sc00601b
   * J. Koopman and S. Grimme, ACS Omega 2019, 4, 12, 15120-15133.
     DOI: 10.1021/acsomega.9b02011
   
   for metadynamics refer to:
   * S. Grimme, J. Chem. Theory Comput., 2019, 155, 2847-2862
     DOI: 10.1021/acs.jctc.9b00143
   
   for SPH calculations refer to:
   * S. Spicher and S. Grimme, J. Chem. Theory Comput., 2021, 17, 1701-1714
     DOI: 10.1021/acs.jctc.0c01306
   
   for ONIOM refer to:
   * C. Plett, A. Katbashev, S. Ehlert, S. Grimme, M. Bursch,
     Phys. Chem. Chem. Phys., 2023, 25, 17860-17868. DOI: 10.1039/D3CP02178E
   
   for DIPRO refer to:
   * J. Kohn, N. Gildemeister, S. Grimme, D. Fazzi, A. Hansen,
     J. Chem. Phys., 2023, just accepted.
   
   for PTB refer to:
   * S. Grimme, M. Mueller, A. Hansen, J. Chem. Phys., 2023, 158, 124111.
     DOI: 10.1063/5.0137838
   
   with help from (in alphabetical order)
   P. Atkinson, C. Bannwarth, F. Bohle, G. Brandenburg, E. Caldeweyher
   M. Checinski, S. Dohm, S. Ehlert, S. Ehrlich, I. Gerasimov, C. Hölzer
   A. Katbashev, J. Kohn, J. Koopman, C. Lavigne, S. Lehtola, F. März, M. Müller,
   F. Musil, H. Neugebauer, J. Pisarek, C. Plett, P. Pracht, F. Pultar,
   J. Seibert, P. Shushkov, S. Spicher, M. Stahn, M. Steiner, T. Strunk,
   J. Stückrath, T. Rose, and J. Unsleber
   
 * started run on 2025/01/15 at 17:23:14.598     
   ID    Z sym.   atoms
    1    6 c      1, 4-25, 27-61
    2    8 o      2, 3, 83
    3    1 h      26, 62-82, 84

           -------------------------------------------------
          |                Calculation Setup                |
           -------------------------------------------------

          program call               : xtb interaction --opt
          coordinate file            : interaction
          omp threads                :                    16


molecular fragmentation (1/2 indicates fragments):
111222222222222222222222222222222222222222222222222222222222222222222222
222222222222
# atoms in fragment 1/2:     3    81
 fragment masses (1/2) :       44.01      723.79
CMA distance (Bohr)    :  23.722
constraining FC (au)   :  0.0500

           -------------------------------------------------
          |                 G F N 2 - x T B                 |
           -------------------------------------------------

        Reference                      10.1021/acs.jctc.8b01176
      * Hamiltonian:
        H0-scaling (s, p, d)           1.850000    2.230000    2.230000
        zeta-weighting                 0.500000
      * Dispersion:
        s8                             2.700000
        a1                             0.520000
        a2                             5.000000
        s9                             5.000000
      * Repulsion:
        kExp                           1.500000    1.000000
        rExp                           1.000000
      * Coulomb:
        alpha                          2.000000
        third order                    shell-resolved
        anisotropic                    true
        a3                             3.000000
        a5                             4.000000
        cn-shift                       1.200000
        cn-exp                         4.000000
        max-rad                        5.000000


          ...................................................
          :                      SETUP                      :
          :.................................................:
          :  # basis functions                 267          :
          :  # atomic orbitals                 267          :
          :  # shells                          145          :
          :  # electrons                       273          :
          :  max. iterations                   250          :
          :  Hamiltonian                  GFN2-xTB          :
          :  restarted?                      false          :
          :  GBSA solvation                  false          :
          :  PC potential                    false          :
          :  electronic temp.          300.0000000     K    :
          :  accuracy                    1.0000000          :
          :  -> integral cutoff          0.2500000E+02      :
          :  -> integral neglect         0.1000000E-07      :
          :  -> SCF convergence          0.1000000E-05 Eh   :
          :  -> wf. convergence          0.1000000E-03 e    :
          :  Broyden damping             0.4000000          :
          :  net charge                          0          :
          :  unpaired electrons                  0          :
          ...................................................

 iter      E             dE          RMSdq      gap      omega  full diag
   1   -150.9266067 -0.150927E+03  0.502E+00    0.29       0.0  T
   2   -150.7604284  0.166178E+00  0.306E+00    0.32       1.0  T
   3   -149.0618924  0.169854E+01  0.336E+00    0.32       1.0  T
   4   -150.6877293 -0.162584E+01  0.138E+00    0.66       1.0  T
   5   -150.6813183  0.641105E-02  0.153E+00    0.87       1.0  T
   6   -150.9516778 -0.270360E+00  0.824E-01    0.37       1.0  T
   7   -150.9879146 -0.362368E-01  0.597E-01    0.33       1.0  T
   8   -151.0295144 -0.415998E-01  0.228E-01    0.26       1.0  T
   9   -151.0315224 -0.200792E-02  0.243E-01    0.22       1.0  T
  10   -151.0322294 -0.707023E-03  0.210E-01    0.28       1.0  T
  11   -151.0373999 -0.517048E-02  0.345E-02    0.25       1.0  T
  12   -151.0372499  0.149936E-03  0.450E-02    0.25       1.0  T
  13   -151.0374960 -0.246050E-03  0.110E-02    0.25       1.0  T
  14   -151.0375030 -0.698152E-05  0.665E-03    0.25       1.6  T
  15   -151.0375078 -0.479999E-05  0.220E-03    0.25       5.0  T
  16   -151.0375072  0.602254E-06  0.269E-03    0.25       4.1  T
  17   -151.0375082 -0.105901E-05  0.584E-04    0.25      18.7  T
  18   -151.0375082 -0.249381E-07  0.220E-04    0.25      49.6  T
  19   -151.0375082  0.107444E-07  0.345E-04    0.25      31.6  T

   *** convergence criteria satisfied after 19 iterations ***

         #    Occupation            Energy/Eh            Energy/eV
      -------------------------------------------------------------
         1        2.0000           -0.8111621             -22.0728
       ...           ...                  ...                  ...
       131        2.0000           -0.3857219             -10.4960
       132        2.0000           -0.3764287             -10.2431
       133        2.0000           -0.3702013             -10.0737
       134        2.0000           -0.3643016              -9.9132
       135        2.0000           -0.3520548              -9.5799
       136        1.8278           -0.3340685              -9.0905
       137        1.1642           -0.3310806              -9.0092 (HOMO)
       138        0.0080           -0.3218722              -8.7586 (LUMO)
       139                         -0.2924958              -7.9592
       140                         -0.2723179              -7.4101
       141                         -0.2668151              -7.2604
       142                         -0.2513066              -6.8384
       ...                                ...                  ...
       267                          1.3655033              37.1572
      -------------------------------------------------------------
                  HL-Gap            0.0092085 Eh            0.2506 eV
             Fermi-level           -0.3295153 Eh           -8.9666 eV

 SCC (total)                   0 d,  0 h,  0 min,  0.870 sec
 SCC setup                      ...        0 min,  0.001 sec (  0.065%)
 Dispersion                     ...        0 min,  0.005 sec (  0.562%)
 classical contributions        ...        0 min,  0.000 sec (  0.034%)
 integral evaluation            ...        0 min,  0.015 sec (  1.742%)
 iterations                     ...        0 min,  0.784 sec ( 90.049%)
 molecular gradient             ...        0 min,  0.041 sec (  4.740%)
 printout                       ...        0 min,  0.024 sec (  2.804%)

         :::::::::::::::::::::::::::::::::::::::::::::::::::::
         ::                     SUMMARY                     ::
         :::::::::::::::::::::::::::::::::::::::::::::::::::::
         :: total energy            -148.299072869811 Eh    ::
         :: gradient norm              0.000763325914 Eh/a0 ::
         :: HOMO-LUMO gap              0.250574961272 eV    ::
         ::.................................................::
         :: SCC energy              -151.039034460653 Eh    ::
         :: -> isotropic ES            0.068037612148 Eh    ::
         :: -> anisotropic ES          0.008120793111 Eh    ::
         :: -> anisotropic XC          0.061958398755 Eh    ::
         :: -> dispersion             -0.150289155899 Eh    ::
         :: repulsion energy           2.739961590842 Eh    ::
         :: add. restraining           0.000000000000 Eh    ::
         :: total charge              -0.000000000000 e     ::
         :::::::::::::::::::::::::::::::::::::::::::::::::::::

      ----------------------------------------------------------- 
     |                   =====================                   |
     |                        A N C O P T                        |
     |                   =====================                   |
     |               Approximate Normal Coordinate               |
     |                Rational Function Optimizer                |
      ----------------------------------------------------------- 
      ----------------------------------------------------------- 
     |                   =====================                   |
     |                        A N C O P T                        |
     |                   =====================                   |
     |               Approximate Normal Coordinate               |
     |                Rational Function Optimizer                |
      ----------------------------------------------------------- 

          ...................................................
          :                      SETUP                      :
          :.................................................:
          :   optimization level            normal          :
          :   max. optcycles                   252          :
          :   ANC micro-cycles                  20          :
          :   degrees of freedom               246          :
          :.................................................:
          :   RF solver                   davidson          :
          :   write xtbopt.log                true          :
          :   linear?                        false          :
          :   energy convergence         0.5000000E-05 Eh   :
          :   grad. convergence          0.1000000E-02 Eh/α :
          :   maxmium RF displ.          1.0000000          :
          :   Hlow (freq-cutoff)         0.1000000E-01      :
          :   Hmax (freq-cutoff)         5.0000000          :
          :   S6 in model hess.         20.0000000          :
          ...................................................

generating ANC from exact Hessian ...
Using Lindh-Hessian (1995)
 Shifting diagonal of input Hessian by    9.9926953651507111E-003
 Lowest  eigenvalues of input Hessian
    0.000000    0.000000    0.000000    0.000000    0.000000    0.000000
    0.010000    0.010007    0.010022    0.010045    0.010248    0.010433
    0.010434    0.010722    0.011097    0.011312    0.011944    0.013473
 Highest eigenvalues
    2.124241    2.152806    2.162724    2.165938    2.195657    3.268726


........................................................................
.............................. CYCLE    1 ..............................
........................................................................

 iter      E             dE          RMSdq      gap      omega  full diag
   1   -151.0375082 -0.151038E+03  0.384E-05    0.25       0.0  T
   2   -151.0375082  0.246285E-08  0.134E-04    0.25      81.5  T
   3   -151.0375082 -0.230168E-08  0.467E-05    0.25     233.9  T
     SCC iter.                  ...        0 min,  0.124 sec
     gradient                   ...        0 min,  0.041 sec
 * total energy  :  -148.2990729 Eh     change       -0.1448689E-07 Eh
   gradient norm :     0.0007634 Eh/α   predicted     0.0000000E+00 (-100.00%)
   displ. norm   :     0.0131050 α      lambda       -0.1334385E-05
   maximum displ.:     0.0116315 α      in ANC's #8, #10, #1, ...

   *** GEOMETRY OPTIMIZATION CONVERGED AFTER 1 ITERATIONS ***

------------------------------------------------------------------------
 total energy gain   :        -0.0000000 Eh       -0.0000 kcal/mol
 total RMSD          :         0.0000002 a0        0.0000 Å
 total power (kW/mol):        -0.0000380 (step)   -0.0002 (real)
------------------------------------------------------------------------

 ANCopt (total)                0 d,  0 h,  0 min,  0.250 sec
 optimizer setup                ...        0 min,  0.000 sec (  0.066%)
 model hessian                  ...        0 min,  0.024 sec (  9.755%)
 ANC generation                 ...        0 min,  0.017 sec (  6.950%)
 coordinate transformation      ...        0 min,  0.000 sec (  0.032%)
 single point calculation       ...        0 min,  0.205 sec ( 82.187%)
 optimization log               ...        0 min,  0.000 sec (  0.099%)
 hessian update                 ...        0 min,  0.000 sec (  0.001%)
 rational function              ...        0 min,  0.000 sec (  0.076%)

================
 final structure:
================
$coord
       -3.77886643488843        1.66545153875323       -0.14829361204230      c
       -5.50813591460882        0.41048630887111        0.17446934243526      o
       -2.04927570172680        2.91930560967385       -0.47220854356565      o
        2.40754264517974        1.39673236998268       18.96324785415323      c
        0.09541865117381        5.40574287851497       19.39485328635410      c
       -2.25344106962371        9.47307447456425       19.69509459557743      c
       -4.51223575918511       13.51825306139363       19.39706776609965      c
       -6.78797993782667       17.55821511953896       19.06469778168612      c
        4.57433780359709        0.12109898833682       18.55292755042511      c
        6.94403603908933        1.40363546312671       18.24600998021457      c
        2.32209842741533        4.10588364882165       18.92553863112369      c
        4.57618184584368        5.44390596908747       18.23921321445857      c
       -0.03454328294162        8.07378412040893       19.41858001333836      c
        2.23826065461668        9.40158739608972       18.84506580879873      c
       -2.27951733692465       12.12024735874453       19.37241353859607      c
        0.06676477054160       13.45358945102996       19.08221696999057      c
       -4.52911952253870       16.15931056207001       19.10453297835675      c
       -2.19816918873804       17.47716560987434       18.85500012490470      c
       -6.74607721438043       20.15446311246796       18.77901718988667      c
       -4.48798552553046       21.44377574816899       18.53441144255387      c
        9.19895781967170        0.08203670082994       18.24207177017223      c
       11.57083496956609        1.29785545428314       18.30315589836881      c
        6.94739736668771        4.10408624408184       18.09468845402383      c
        9.32384108433507        5.30537548858159       18.14974715916511      c
        4.29178464017533        8.06149789204364       17.93516159879066      c
       22.49694269874524        0.21973835036142       19.03494090890499      h
        2.34771010235377       12.10955337339707       19.05846186464636      c
        4.65115782055676       13.46015945128396       19.27266204207553      c
        0.09639525976351       16.12336236228991       18.89177145190761      c
        2.42118906513696       17.43099135617298       18.69702143848604      c
       -2.16716036963624       20.14856022560081       18.57188867520831      c
        0.16299852344758       21.40992275851692       18.36007140670321      c
       13.86408787666946        0.00217739842105       18.39531413549948      c
       16.17100417777040        1.28020621021329       18.60851716301058      c
       11.59785895712911        3.99630376224508       18.36408806280297      c
       13.92969671446058        5.32820948456563       18.68397599458500      c
        9.40556214015155        8.08433544368463       18.28926378907521      c
       11.76707080204425        9.37723007148493       19.00916729031249      c
        6.93344054235482       12.34200374921218       20.33711326679542      c
        9.36497935773492       13.41114308555364       19.50977845539608      c
        4.71090105611952       16.09579389403534       18.92503867435644      c
        7.07212170717022       17.39714636117525       18.91732208611050      c
        2.45144073066071       20.11823070865616       18.44270528671424      c
        4.81875945337668       21.35799457970655       18.34644476805537      c
       18.48911174736878       -0.02369354326097       18.70177321108285      c
       20.74166476761855        1.26121894767901       18.97183163802365      c
       16.19377375027558        3.97680469508138       18.79266117840431      c
       18.54278358276596        5.28611015616133       19.10485194071080      c
       13.99046683850646        8.02190613766926       18.99944382709262      c
       16.34202405977594        9.34049585384496       19.28193558737681      c
       11.65749616391768       12.02701119562322       19.36848331393722      c
       14.02077203285145       13.36215799503416       19.33929463952645      c
        9.36523753027941       16.04645961405077       19.11702219358383      c
       11.73442702151012       17.35792978291414       18.98116767138522      c
        7.07666627955895       20.06335784097160       18.57996879859341      c
        9.47443937458676       21.32900328731180       18.49683406149457      c
       20.78404969077915        3.86917252390894       19.17538893825077      c
       18.56584525861223        7.93050683471834       19.31676677666509      c
       16.27235257206463       11.99908717419148       19.36478948839398      c
       13.96333501969883       16.03536078987617       19.20909802352106      c
       11.67132345360928       20.05088213381202       18.68581935728745      c
       -4.48359826590090       23.47370856314226       18.31690901616068      h
        0.16647370369958       23.44390347869196       18.16921142730533      h
        4.84481559228159       23.38769497094853       18.11421126730826      h
        9.46785443636019       23.35915302949196       18.26999228403269      h
        4.59737901611964       -1.92149900473375       18.56707706696851      h
        9.15472034887924       -1.96026784234283       18.30177988502178      h
       13.86682307731370       -2.03977461390917       18.32436731142390      h
       18.47793794473793       -2.06062195492961       18.56368052409302      h
        0.66491058552532        0.39529437751705       19.32875737651548      h
       -1.61487276160690        4.34326566206914       19.74755335425138      h
       -4.01820470343347        8.51027615065512       20.05818366268814      h
       -6.29411425006874       12.54853699036849       19.64240896632074      h
       -8.56619277682087       16.57404452399884       19.25651348008192      h
       22.56241267932436        4.84715501201183       19.39871141770582      h
       20.36097061782687        8.88642209964847       19.51370921389049      h
       18.04310043366679       13.01887600572495       19.38933603744045      h
       15.73794702978539       17.04941779449416       19.22386751389681      h
       13.45884546615648       21.03765054853432       18.61479496100047      h
       -8.50493610869305       21.19157328331164       18.74955832325635      h
        5.59598865799373        9.18455710010509       16.87744088787261      h
        8.86928028358384        8.91318646117902       16.47176774427312      h
        6.79858797256517       10.72923091095584       22.01384668305035      o
        7.99101514725280        8.52028007755057       19.71564126934150      h
$end

 Bond Distances (Angstroems)
 ---------------------------
C1-O2=1.1435         C1-O3=1.1434         O2-C1=1.1435         O3-C1=1.1434         C4-C9=1.3482         C4-C11=1.4345        
C4-H70=1.0810        C5-C11=1.3868        C5-C13=1.4136        C5-H71=1.0817        C6-C13=1.3959        C6-C15=1.4113        
C6-H72=1.0810        C7-C15=1.3941        C7-C17=1.4062        C7-H73=1.0813        C8-C17=1.4062        C8-C19=1.3823        
C8-H74=1.0803        C9-C4=1.3482         C9-C10=1.4351        C9-H66=1.0810        C10-C9=1.4351        C10-C21=1.3831       
C10-C23=1.4313       C11-C4=1.4345        C11-C5=1.3868        C11-C12=1.4339       C12-C11=1.4339       C12-C23=1.4433       
C12-C25=1.4026       C13-C5=1.4136        C13-C6=1.3959        C13-C14=1.4256       C14-C13=1.4256       C14-C25=1.3841       
C14-C27=1.4386       C15-C6=1.4113        C15-C7=1.3941        C15-C16=1.4363       C16-C15=1.4363       C16-C27=1.4010       
C16-C29=1.4165       C17-C7=1.4062        C17-C8=1.4062        C17-C18=1.4231       C18-C17=1.4231       C18-C29=1.4100       
C18-C31=1.4217       C19-C8=1.3823        C19-C20=1.3821       C19-H80=1.0806       C20-C19=1.3821       C20-C31=1.4066       
C20-H62=1.0803       C21-C10=1.3831       C21-C22=1.4108       C21-H67=1.0815       C22-C21=1.4108       C22-C33=1.3947       
C22-C35=1.4284       C23-C10=1.4313       C23-C12=1.4433       C23-C24=1.4094       C24-C23=1.4094       C24-C35=1.3931       
C24-C37=1.4730       C25-C12=1.4026       C25-C14=1.3841       C25-H81=1.0690       H26-C46=1.0806       C27-C14=1.4386       
C27-C16=1.4010       C27-C28=1.4176       C28-C27=1.4176       C28-C39=1.4581       C28-C41=1.4072       C29-C16=1.4165       
C29-C18=1.4100       C29-C30=1.4152       C30-C29=1.4152       C30-C41=1.4078       C30-C43=1.4285       C31-C18=1.4217       
C31-C20=1.4066       C31-C32=1.4066       C32-C31=1.4066       C32-C43=1.3913       C32-H63=1.0811       C33-C22=1.3947       
C33-C34=1.4001       C33-H68=1.0812       C34-C33=1.4001       C34-C45=1.4083       C34-C47=1.4304       C35-C22=1.4284       
C35-C24=1.3931       C35-C36=1.4311       C36-C35=1.4311       C36-C47=1.3965       C36-C49=1.4355       C37-C24=1.4730       
C37-C38=1.4747       C37-H82=1.0945       C37-H84=1.0878       C38-C37=1.4747       C38-C49=1.3779       C38-C51=1.4162       
C39-C28=1.4581       C39-C40=1.4722       C39-O83=1.2332       C40-C39=1.4722       C40-C51=1.4191       C40-C53=1.4100       
C41-C28=1.4072       C41-C30=1.4078       C41-C42=1.4267       C42-C41=1.4267       C42-C53=1.4123       C42-C55=1.4221       
C43-C30=1.4285       C43-C32=1.3913       C43-C44=1.4150       C44-C43=1.4150       C44-C55=1.3828       C44-H64=1.0812       
C45-C34=1.4083       C45-C46=1.3797       C45-H69=1.0804       C46-H26=1.0806       C46-C45=1.3797       C46-C57=1.3844       
C47-C34=1.4304       C47-C36=1.3965       C47-C48=1.4327       C48-C47=1.4327       C48-C57=1.4037       C48-C58=1.4039       
C49-C36=1.4355       C49-C38=1.3779       C49-C50=1.4345       C50-C49=1.4345       C50-C58=1.3935       C50-C59=1.4080       
C51-C38=1.4162       C51-C40=1.4191       C51-C52=1.4365       C52-C51=1.4365       C52-C59=1.3929       C52-C60=1.4166       
C53-C40=1.4100       C53-C42=1.4123       C53-C54=1.4348       C54-C53=1.4348       C54-C60=1.3768       C54-C61=1.4340       
C55-C42=1.4221       C55-C44=1.3828       C55-C56=1.4354       C56-C55=1.4354       C56-C61=1.3487       C56-H65=1.0810       
C57-C46=1.3844       C57-C48=1.4037       C57-H75=1.0805       C58-C48=1.4039       C58-C50=1.3935       C58-H76=1.0813       
C59-C50=1.4080       C59-C52=1.3929       C59-H77=1.0814       C60-C52=1.4166       C60-C54=1.3768       C60-H78=1.0816       
C61-C54=1.4340       C61-C56=1.3487       C61-H79=1.0811       H62-C20=1.0803       H63-C32=1.0811       H64-C44=1.0812       
H65-C56=1.0810       H66-C9=1.0810        H67-C21=1.0815       H68-C33=1.0812       H69-C45=1.0804       H70-C4=1.0810        
H71-C5=1.0817        H72-C6=1.0810        H73-C7=1.0813        H74-C8=1.0803        H75-C57=1.0805       H76-C58=1.0813       
H77-C59=1.0814       H78-C60=1.0816       H79-C61=1.0811       H80-C19=1.0806       H81-C25=1.0690       H82-C37=1.0945       
O83-C39=1.2332       H84-C37=1.0878       
 C  H  Rav=1.0814 sigma=0.0040  Rmin=1.0690  Rmax=1.0945    23
 C  C  Rav=1.4127 sigma=0.0243  Rmin=1.3482  Rmax=1.4747    74
 O  C  Rav=1.1734 sigma=0.0423  Rmin=1.1434  Rmax=1.2332     3

 selected bond angles (degree)
 --------------------
O3-C1-O2=179.96                C11-C4-C9=121.67               H70-C4-C9=120.59               H70-C4-C11=117.74              
C13-C5-C11=122.57              H71-C5-C11=118.95              H71-C5-C13=118.48              C15-C6-C13=121.47              
H72-C6-C13=119.69              H72-C6-C15=118.74              C17-C7-C15=122.13              H73-C7-C15=119.23              
H73-C7-C17=118.64              C19-C8-C17=120.75              H74-C8-C17=119.03              H74-C8-C19=120.22              
C10-C9-C4=121.64               H66-C9-C4=120.61               H66-C9-C10=117.63              C21-C10-C9=120.99              
C23-C10-C9=118.66              C23-C10-C21=120.24             

 selected dihedral angles (degree)
 ---------------------------------
C10-C9-C4-C11=  4.78          C10-C9-C4-H70=184.60          H66-C9-C4-C11=180.72          H66-C9-C4-H70=  0.54          
C21-C10-C9-C4=169.27          C21-C10-C9-H66=353.21         C23-C10-C9-C4=352.99          C23-C10-C9-H66=176.92         

 CMA Distance (Angstroems)
 ---------------------------
R(CMA): 12.5532
           -------------------------------------------------
          |                Final Singlepoint                |
           -------------------------------------------------

          ...................................................
          :                      SETUP                      :
          :.................................................:
          :  # basis functions                 267          :
          :  # atomic orbitals                 267          :
          :  # shells                          145          :
          :  # electrons                       273          :
          :  max. iterations                   250          :
          :  Hamiltonian                  GFN2-xTB          :
          :  restarted?                      false          :
          :  GBSA solvation                  false          :
          :  PC potential                    false          :
          :  electronic temp.          300.0000000     K    :
          :  accuracy                    1.0000000          :
          :  -> integral cutoff          0.2500000E+02      :
          :  -> integral neglect         0.1000000E-07      :
          :  -> SCF convergence          0.1000000E-05 Eh   :
          :  -> wf. convergence          0.1000000E-03 e    :
          :  Broyden damping             0.4000000          :
          :  net charge                          0          :
          :  unpaired electrons                  0          :
          ...................................................

 iter      E             dE          RMSdq      gap      omega  full diag
   1   -151.0375082 -0.151038E+03  0.619E-05    0.25       0.0  T
   2   -151.0375082  0.402099E-07  0.484E-04    0.25      22.5  T
   3   -151.0375082 -0.406670E-07  0.394E-05    0.25     276.7  T

   *** convergence criteria satisfied after 3 iterations ***

         #    Occupation            Energy/Eh            Energy/eV
      -------------------------------------------------------------
         1        2.0000           -0.8111622             -22.0728
       ...           ...                  ...                  ...
       131        2.0000           -0.3857211             -10.4960
       132        2.0000           -0.3764278             -10.2431
       133        2.0000           -0.3702004             -10.0737
       134        2.0000           -0.3643004              -9.9131
       135        2.0000           -0.3520547              -9.5799
       136        1.8278           -0.3340683              -9.0905
       137        1.1642           -0.3310800              -9.0091 (HOMO)
       138        0.0080           -0.3218729              -8.7586 (LUMO)
       139                         -0.2924952              -7.9592
       140                         -0.2723174              -7.4101
       141                         -0.2668150              -7.2604
       142                         -0.2513061              -6.8384
       ...                                ...                  ...
       267                          1.3655032              37.1572
      -------------------------------------------------------------
                  HL-Gap            0.0092072 Eh            0.2505 eV
             Fermi-level           -0.3295152 Eh           -8.9666 eV

 SCC (total)                   0 d,  0 h,  0 min,  0.207 sec
 SCC setup                      ...        0 min,  0.001 sec (  0.273%)
 Dispersion                     ...        0 min,  0.003 sec (  1.527%)
 classical contributions        ...        0 min,  0.000 sec (  0.082%)
 integral evaluation            ...        0 min,  0.012 sec (  5.721%)
 iterations                     ...        0 min,  0.124 sec ( 60.154%)
 molecular gradient             ...        0 min,  0.042 sec ( 20.115%)
 printout                       ...        0 min,  0.025 sec ( 12.114%)

         :::::::::::::::::::::::::::::::::::::::::::::::::::::
         ::                     SUMMARY                     ::
         :::::::::::::::::::::::::::::::::::::::::::::::::::::
         :: total energy            -148.299072884434 Eh    ::
         :: gradient norm              0.000763426023 Eh/a0 ::
         :: HOMO-LUMO gap              0.250539602236 eV    ::
         ::.................................................::
         :: SCC energy              -151.039034475275 Eh    ::
         :: -> isotropic ES            0.068033785750 Eh    ::
         :: -> anisotropic ES          0.008121501974 Eh    ::
         :: -> anisotropic XC          0.061958226587 Eh    ::
         :: -> dispersion             -0.150288972615 Eh    ::
         :: repulsion energy           2.739961590842 Eh    ::
         :: add. restraining           0.000000000000 Eh    ::
         :: total charge              -0.000000000000 e     ::
         :::::::::::::::::::::::::::::::::::::::::::::::::::::


Property printout bound to 'properties.out'

optimized geometry written to: xtbopt.coord


           -------------------------------------------------
          | TOTAL ENERGY             -148.299072884434 Eh   |
          | GRADIENT NORM               0.000763426023 Eh/α |
          | HOMO-LUMO GAP               0.250539602236 eV   |
           -------------------------------------------------

------------------------------------------------------------------------
 * finished run on 2025/01/15 at 17:23:15.958     
------------------------------------------------------------------------
 total:
 * wall-time:     0 d,  0 h,  0 min,  1.360 sec
 *  cpu-time:     0 d,  0 h,  0 min,  4.210 sec
 * ratio c/w:     3.096 speedup
 SCF:
 * wall-time:     0 d,  0 h,  0 min,  0.872 sec
 *  cpu-time:     0 d,  0 h,  0 min,  2.264 sec
 * ratio c/w:     2.596 speedup
 ANC optimizer:
 * wall-time:     0 d,  0 h,  0 min,  0.459 sec
 *  cpu-time:     0 d,  0 h,  0 min,  1.790 sec
 * ratio c/w:     3.897 speedup

