      -----------------------------------------------------------      
     |                   =====================                   |     
     |                           x T B                           |     
     |                   =====================                   |     
     |                         S. Grimme                         |     
     |          Mulliken Center for Theoretical Chemistry        |     
     |                    University of Bonn                     |     
      -----------------------------------------------------------      

   * xtb version 6.5.1 (fef0646) compiled by 'conda@b96dff2e9fd6' on 2023-01-04

   xtb is free software: you can redistribute it and/or modify it under
   the terms of the GNU Lesser General Public License as published by
   the Free Software Foundation, either version 3 of the License, or
   (at your option) any later version.
   
   xtb is distributed in the hope that it will be useful,
   but WITHOUT ANY WARRANTY; without even the implied warranty of
   MERCHANTABILITY or FITNESS FOR A PARTICULAR PURPOSE.  See the
   GNU Lesser General Public License for more details.
   
   Cite this work as:
   * C. Bannwarth, E. Caldeweyher, S. Ehlert, A. Hansen, P. Pracht,
     J. Seibert, S. Spicher, S. Grimme, WIREs Comput. Mol. Sci., 2020, 11,
     e01493. DOI: 10.1002/wcms.1493
   
   for GFN2-xTB:
   * C. Bannwarth, S. Ehlert and S. Grimme., J. Chem. Theory Comput., 2019,
     15, 1652-1671. DOI: 10.1021/acs.jctc.8b01176
   for GFN1-xTB:
   * S. Grimme, C. Bannwarth, P. Shushkov, J. Chem. Theory Comput., 2017,
     13, 1989-2009. DOI: 10.1021/acs.jctc.7b00118
   for GFN0-xTB:
   * P. Pracht, E. Caldeweyher, S. Ehlert, S. Grimme, ChemRxiv, 2019, preprint.
     DOI: 10.26434/chemrxiv.8326202.v1
   for GFN-FF:
   * S. Spicher and S. Grimme, Angew. Chem. Int. Ed., 2020, 59, 15665-15673.
     DOI: 10.1002/anie.202004239
   
   for ALPB and GBSA implicit solvation:
   * S. Ehlert, M. Stahn, S. Spicher, S. Grimme, J. Chem. Theory Comput.,
     2021, 17, 4250-4261. DOI: 10.1021/acs.jctc.1c00471
   
   for DFT-D4:
   * E. Caldeweyher, C. Bannwarth and S. Grimme, J. Chem. Phys., 2017,
     147, 034112. DOI: 10.1063/1.4993215
   * E. Caldeweyher, S. Ehlert, A. Hansen, H. Neugebauer, S. Spicher,
     C. Bannwarth and S. Grimme, J. Chem. Phys., 2019, 150, 154122.
     DOI: 10.1063/1.5090222
   * E. Caldeweyher, J.-M. Mewes, S. Ehlert and S. Grimme, Phys. Chem. Chem. Phys.
     2020, 22, 8499-8512. DOI: 10.1039/D0CP00502A
   
   for sTDA-xTB:
   * S. Grimme and C. Bannwarth, J. Chem. Phys., 2016, 145, 054103.
     DOI: 10.1063/1.4959605
   
   in the mass-spec context:
   * V. Asgeirsson, C. Bauer and S. Grimme, Chem. Sci., 2017, 8, 4879.
     DOI: 10.1039/c7sc00601b
   * J. Koopman and S. Grimme, ACS Omega 2019, 4, 12, 15120-15133.
     DOI: 10.1021/acsomega.9b02011
   
   for metadynamics refer to:
   * S. Grimme, J. Chem. Theory Comput., 2019, 155, 2847-2862
     DOI: 10.1021/acs.jctc.9b00143
   
   for SPH calculations refer to:
   * S. Spicher and S. Grimme, J. Chem. Theory Comput., 2021, 17, 1701-1714
     DOI: 10.1021/acs.jctc.0c01306
   
   with help from (in alphabetical order)
   P. Atkinson, C. Bannwarth, F. Bohle, G. Brandenburg, E. Caldeweyher
   M. Checinski, S. Dohm, S. Ehlert, S. Ehrlich, I. Gerasimov, C. Hölzer
   A. Katbashev, J. Koopman, C. Lavigne, S. Lehtola, F. März, M. Müller,
   F. Musil, H. Neugebauer, J. Pisarek, C. Plett, P. Pracht, F. Pultar,
   J. Seibert, P. Shushkov, S. Spicher, M. Stahn, M. Steiner, T. Strunk,
   J. Stückrath, T. Rose, and J. Unsleber
   
 * started run on 2024/11/21 at 16:53:36.921     

           -------------------------------------------------
          |                Calculation Setup                |
           -------------------------------------------------

          program call               : xtb interaction
          coordinate file            : interaction
          omp threads                :                    24

   ID    Z sym.   atoms
    1    6 c      1, 4-25, 27-61
    2    8 o      2, 3, 83
    3    1 h      26, 62-82, 84

molecular fragmentation (1/2 indicates fragments):
111222222222222222222222222222222222222222222222222222222222222222222222
222222222222
# atoms in fragment 1/2:     3    81
 fragment masses (1/2) :       44.01      723.79
CMA distance (Bohr)    :  23.722
constraining FC (au)   :  0.0500

           -------------------------------------------------
          |                 G F N 2 - x T B                 |
           -------------------------------------------------

        Reference                      10.1021/acs.jctc.8b01176
      * Hamiltonian:
        H0-scaling (s, p, d)           1.850000    2.230000    2.230000
        zeta-weighting                 0.500000
      * Dispersion:
        s8                             2.700000
        a1                             0.520000
        a2                             5.000000
        s9                             5.000000
      * Repulsion:
        kExp                           1.500000    1.000000
        rExp                           1.000000
      * Coulomb:
        alpha                          2.000000
        third order                    shell-resolved
        anisotropic                    true
        a3                             3.000000
        a5                             4.000000
        cn-shift                       1.200000
        cn-exp                         4.000000
        max-rad                        5.000000


          ...................................................
          :                      SETUP                      :
          :.................................................:
          :  # basis functions                 267          :
          :  # atomic orbitals                 267          :
          :  # shells                          145          :
          :  # electrons                       273          :
          :  max. iterations                   250          :
          :  Hamiltonian                  GFN2-xTB          :
          :  restarted?                      false          :
          :  GBSA solvation                  false          :
          :  PC potential                    false          :
          :  electronic temp.          300.0000000     K    :
          :  accuracy                    1.0000000          :
          :  -> integral cutoff          0.2500000E+02      :
          :  -> integral neglect         0.1000000E-07      :
          :  -> SCF convergence          0.1000000E-05 Eh   :
          :  -> wf. convergence          0.1000000E-03 e    :
          :  Broyden damping             0.4000000          :
          ...................................................

 iter      E             dE          RMSdq      gap      omega  full diag
   1   -150.9266067 -0.150927E+03  0.502E+00    0.29       0.0  T
   2   -150.7604284  0.166178E+00  0.306E+00    0.32       1.0  T
   3   -149.0618924  0.169854E+01  0.336E+00    0.32       1.0  T
   4   -150.6877293 -0.162584E+01  0.138E+00    0.66       1.0  T
   5   -150.6813183  0.641105E-02  0.153E+00    0.87       1.0  T
   6   -150.9516778 -0.270360E+00  0.824E-01    0.37       1.0  T
   7   -150.9879146 -0.362368E-01  0.597E-01    0.33       1.0  T
   8   -151.0295144 -0.415998E-01  0.228E-01    0.26       1.0  T
   9   -151.0315224 -0.200792E-02  0.243E-01    0.22       1.0  T
  10   -151.0322294 -0.707023E-03  0.210E-01    0.28       1.0  T
  11   -151.0373999 -0.517048E-02  0.345E-02    0.25       1.0  T
  12   -151.0372499  0.149936E-03  0.450E-02    0.25       1.0  T
  13   -151.0374960 -0.246050E-03  0.110E-02    0.25       1.0  T
  14   -151.0375030 -0.698152E-05  0.665E-03    0.25       1.6  T
  15   -151.0375078 -0.479999E-05  0.220E-03    0.25       5.0  T
  16   -151.0375072  0.602253E-06  0.269E-03    0.25       4.1  T
  17   -151.0375082 -0.105901E-05  0.584E-04    0.25      18.7  T
  18   -151.0375082 -0.249380E-07  0.220E-04    0.25      49.6  T
  19   -151.0375082  0.107442E-07  0.345E-04    0.25      31.6  T

   *** convergence criteria satisfied after 19 iterations ***

         #    Occupation            Energy/Eh            Energy/eV
      -------------------------------------------------------------
         1        2.0000           -0.8111621             -22.0728
       ...           ...                  ...                  ...
       131        2.0000           -0.3857219             -10.4960
       132        2.0000           -0.3764287             -10.2431
       133        2.0000           -0.3702013             -10.0737
       134        2.0000           -0.3643016              -9.9132
       135        2.0000           -0.3520548              -9.5799
       136        1.8278           -0.3340685              -9.0905
       137        1.1642           -0.3310806              -9.0092 (HOMO)
       138        0.0080           -0.3218722              -8.7586 (LUMO)
       139                         -0.2924958              -7.9592
       140                         -0.2723179              -7.4101
       141                         -0.2668151              -7.2604
       142                         -0.2513066              -6.8384
       ...                                ...                  ...
       267                          1.3655033              37.1572
      -------------------------------------------------------------
                  HL-Gap            0.0092085 Eh            0.2506 eV
             Fermi-level           -0.3295153 Eh           -8.9666 eV

 SCC (total)                   0 d,  0 h,  0 min,  1.132 sec
 SCC setup                      ...        0 min,  0.001 sec (  0.079%)
 Dispersion                     ...        0 min,  0.008 sec (  0.742%)
 classical contributions        ...        0 min,  0.001 sec (  0.052%)
 integral evaluation            ...        0 min,  0.020 sec (  1.752%)
 iterations                     ...        0 min,  1.056 sec ( 93.307%)
 molecular gradient             ...        0 min,  0.041 sec (  3.662%)
 printout                       ...        0 min,  0.005 sec (  0.401%)

         :::::::::::::::::::::::::::::::::::::::::::::::::::::
         ::                     SUMMARY                     ::
         :::::::::::::::::::::::::::::::::::::::::::::::::::::
         :: total energy            -148.299072869812 Eh    ::
         :: gradient norm              0.000763325914 Eh/a0 ::
         :: HOMO-LUMO gap              0.250574961272 eV    ::
         ::.................................................::
         :: SCC energy              -151.037508232636 Eh    ::
         :: -> isotropic ES            0.068037612148 Eh    ::
         :: -> anisotropic ES          0.008120793111 Eh    ::
         :: -> anisotropic XC          0.061958398755 Eh    ::
         :: -> dispersion             -0.150289155899 Eh    ::
         :: repulsion energy           2.739961590842 Eh    ::
         :: add. restraining           0.000000000000 Eh    ::
         :: total charge              -0.000000000000 e     ::
         :::::::::::::::::::::::::::::::::::::::::::::::::::::

           -------------------------------------------------
          |                Property Printout                |
           -------------------------------------------------

    * Orbital Energies and Occupations

         #    Occupation            Energy/Eh            Energy/eV
      -------------------------------------------------------------
         1        2.0000           -0.8111621             -22.0728
       ...           ...                  ...                  ...
       125        2.0000           -0.4053106             -11.0291
       126        2.0000           -0.4037341             -10.9862
       127        2.0000           -0.3995177             -10.8714
       128        2.0000           -0.3981513             -10.8342
       129        2.0000           -0.3966197             -10.7926
       130        2.0000           -0.3944689             -10.7340
       131        2.0000           -0.3857219             -10.4960
       132        2.0000           -0.3764287             -10.2431
       133        2.0000           -0.3702013             -10.0737
       134        2.0000           -0.3643016              -9.9132
       135        2.0000           -0.3520548              -9.5799
       136        1.8278           -0.3340685              -9.0905
       137        1.1642           -0.3310806              -9.0092 (HOMO)
       138        0.0080           -0.3218722              -8.7586 (LUMO)
       139                         -0.2924958              -7.9592
       140                         -0.2723179              -7.4101
       141                         -0.2668151              -7.2604
       142                         -0.2513066              -6.8384
       143                         -0.2394365              -6.5154
       144                         -0.2365904              -6.4380
       145                         -0.2303443              -6.2680
       146                         -0.2240891              -6.0978
       147                         -0.2240884              -6.0978
       148                         -0.2229947              -6.0680
       ...                                ...                  ...
       267                          1.3655033              37.1572
      -------------------------------------------------------------
                  HL-Gap            0.0092085 Eh            0.2506 eV
             Fermi-level           -0.3295153 Eh           -8.9666 eV

     #   Z          covCN         q      C6AA      α(0)
     1   6 c        1.711     0.464    21.599     7.524
     2   8 o        0.856    -0.232    18.600     5.782
     3   8 o        0.856    -0.232    18.599     5.782
     4   6 c        2.911    -0.034    28.850     8.808
     5   6 c        2.919    -0.042    29.042     8.837
     6   6 c        2.918    -0.039    28.964     8.825
     7   6 c        2.921    -0.038    28.939     8.822
     8   6 c        2.919    -0.034    28.850     8.808
     9   6 c        2.911    -0.034    28.858     8.809
    10   6 c        2.977     0.014    27.693     8.632
    11   6 c        2.980     0.016    27.653     8.626
    12   6 c        2.971     0.013    27.722     8.636
    13   6 c        2.973     0.016    27.644     8.624
    14   6 c        2.987     0.015    27.667     8.628
    15   6 c        2.970     0.014    27.700     8.633
    16   6 c        2.996    -0.000    28.026     8.684
    17   6 c        2.975     0.014    27.705     8.634
    18   6 c        2.998     0.001    27.989     8.678
    19   6 c        2.910    -0.028    28.711     8.786
    20   6 c        2.919    -0.033    28.823     8.804
    21   6 c        2.921    -0.048    29.183     8.859
    22   6 c        2.974     0.012    27.751     8.641
    23   6 c        2.975    -0.006    28.158     8.704
    24   6 c        2.975     0.010    27.783     8.646
    25   6 c        2.928    -0.042    29.032     8.836
    26   1 h        0.926     0.032     2.555     2.500
    27   6 c        2.981     0.015    27.669     8.628
    28   6 c        2.979    -0.032    28.798     8.803
    29   6 c        2.988     0.003    27.949     8.672
    30   6 c        2.995     0.002    27.975     8.676
    31   6 c        2.975     0.013    27.713     8.635
    32   6 c        2.920    -0.045    29.114     8.848
    33   6 c        2.920    -0.041    29.014     8.833
    34   6 c        2.975     0.014    27.701     8.633
    35   6 c        2.989     0.002    27.981     8.677
    36   6 c        2.984     0.007    27.863     8.659
    37   6 c        3.833    -0.082    22.041     6.680
    38   6 c        2.978     0.014    27.702     8.634
    39   6 c        2.839     0.218    23.417     7.930
    40   6 c        2.970    -0.032    28.789     8.801
    41   6 c        2.991     0.002    27.966     8.675
    42   6 c        2.988    -0.009    28.225     8.715
    43   6 c        2.972     0.013    27.730     8.638
    44   6 c        2.920    -0.047    29.160     8.855
    45   6 c        2.919    -0.032    28.801     8.801
    46   6 c        2.909    -0.028    28.701     8.785
    47   6 c        2.994    -0.001    28.034     8.685
    48   6 c        2.974     0.014    27.694     8.632
    49   6 c        2.990     0.002    27.972     8.676
    50   6 c        2.972     0.012    27.739     8.639
    51   6 c        2.980     0.007    27.853     8.657
    52   6 c        2.974     0.013    27.726     8.637
    53   6 c        2.990     0.004    27.930     8.669
    54   6 c        2.974     0.013    27.711     8.635
    55   6 c        2.974     0.015    27.684     8.631
    56   6 c        2.912    -0.035    28.860     8.809
    57   6 c        2.920    -0.032    28.797     8.800
    58   6 c        2.919    -0.040    28.986     8.829
    59   6 c        2.919    -0.048    29.190     8.860
    60   6 c        2.919    -0.041    29.019     8.834
    61   6 c        2.911    -0.035    28.862     8.809
    62   1 h        0.926     0.034     2.536     2.490
    63   1 h        0.926     0.032     2.552     2.498
    64   1 h        0.926     0.031     2.571     2.507
    65   1 h        0.926     0.032     2.564     2.504
    66   1 h        0.926     0.032     2.563     2.503
    67   1 h        0.925     0.032     2.553     2.499
    68   1 h        0.926     0.034     2.533     2.489
    69   1 h        0.926     0.034     2.535     2.490
    70   1 h        0.926     0.032     2.559     2.502
    71   1 h        0.925     0.033     2.538     2.492
    72   1 h        0.926     0.035     2.512     2.479
    73   1 h        0.925     0.035     2.513     2.479
    74   1 h        0.926     0.033     2.544     2.494
    75   1 h        0.926     0.034     2.534     2.490
    76   1 h        0.925     0.034     2.533     2.489
    77   1 h        0.925     0.032     2.553     2.499
    78   1 h        0.925     0.033     2.541     2.493
    79   1 h        0.926     0.032     2.564     2.504
    80   1 h        0.926     0.032     2.557     2.501
    81   1 h        0.927     0.047     2.357     2.401
    82   1 h        0.924     0.053     2.279     2.361
    83   8 o        0.858    -0.435    22.392     6.344
    84   1 h        0.925     0.126     1.562     1.955

 Mol. C6AA /au·bohr⁶  :     126716.133619
 Mol. C8AA /au·bohr⁸  :    3363460.459906
 Mol. α(0) /au        :        576.390472


Wiberg/Mayer (AO) data.
largest (>0.10) Wiberg bond orders for each atom

 ---------------------------------------------------------------------------
     #   Z sym  total        # sym  WBO       # sym  WBO       # sym  WBO
 ---------------------------------------------------------------------------
     1   6 c    3.936 --     3 o    1.968     2 o    1.968
     2   8 o    2.370 --     1 c    1.968     3 o    0.402
     3   8 o    2.370 --     1 c    1.968     2 o    0.402
     4   6 c    3.972 --     9 c    1.693    11 c    1.167    70 h    0.967
     5   6 c    3.885 --    11 c    1.445    13 c    1.273    71 h    0.966
     6   6 c    3.759 --    13 c    1.359    15 c    1.291    72 h    0.966
     7   6 c    3.787 --    15 c    1.367    17 c    1.302    73 h    0.966
     8   6 c    3.844 --    19 c    1.446    17 c    1.299    74 h    0.969
     9   6 c    3.974 --     4 c    1.693    10 c    1.165    66 h    0.967
    10   6 c    3.977 --    21 c    1.450    23 c    1.203     9 c    1.165
    11   6 c    3.977 --     5 c    1.445    12 c    1.201     4 c    1.167
    12   6 c    3.920 --    25 c    1.340    11 c    1.201    23 c    1.200
    13   6 c    3.977 --     6 c    1.359     5 c    1.273    14 c    1.185
    14   6 c    3.926 --    25 c    1.404    13 c    1.185    27 c    1.155
    15   6 c    3.983 --     7 c    1.367     6 c    1.291    16 c    1.166
    16   6 c    3.944 --    27 c    1.314    29 c    1.244    15 c    1.166
    17   6 c    3.984 --     7 c    1.302     8 c    1.299    18 c    1.222
    18   6 c    3.928 --    29 c    1.266    31 c    1.228    17 c    1.222
    19   6 c    3.984 --    20 c    1.447     8 c    1.446    80 h    0.970
    20   6 c    3.842 --    19 c    1.447    31 c    1.297    62 h    0.969
    21   6 c    3.915 --    10 c    1.450    22 c    1.279    67 h    0.966
    22   6 c    3.982 --    33 c    1.355    21 c    1.279    35 c    1.186
    23   6 c    3.944 --    24 c    1.328    10 c    1.203    12 c    1.200
    24   6 c    3.956 --    35 c    1.353    23 c    1.328    37 c    1.033
    25   6 c    3.952 --    14 c    1.404    12 c    1.340    81 h    0.947
    26   1 h    0.998 --    46 c    0.970
    27   6 c    3.969 --    16 c    1.314    28 c    1.269    14 c    1.155
    28   6 c    3.878 --    41 c    1.276    27 c    1.269    39 c    1.076
    29   6 c    3.985 --    18 c    1.266    30 c    1.255    16 c    1.244
    30   6 c    3.953 --    41 c    1.278    29 c    1.255    43 c    1.190
    31   6 c    3.985 --    20 c    1.297    32 c    1.297    18 c    1.228
    32   6 c    3.806 --    43 c    1.380    31 c    1.297    63 h    0.967
    33   6 c    3.852 --    22 c    1.355    34 c    1.334    68 h    0.966
    34   6 c    3.980 --    33 c    1.334    45 c    1.288    47 c    1.197
    35   6 c    3.957 --    24 c    1.353    36 c    1.205    22 c    1.186
    36   6 c    3.968 --    47 c    1.352    35 c    1.205    49 c    1.178
    37   6 c    3.985 --    24 c    1.033    38 c    1.026    82 h    0.917
                            84 h    0.873
    38   6 c    3.955 --    49 c    1.418    51 c    1.265    37 c    1.026
    39   6 c    3.903 --    83 o    1.640    28 c    1.076    40 c    1.057
    40   6 c    3.912 --    51 c    1.292    53 c    1.291    39 c    1.057
    41   6 c    3.974 --    30 c    1.278    28 c    1.276    42 c    1.198
    42   6 c    3.880 --    53 c    1.276    55 c    1.220    41 c    1.198
    43   6 c    3.985 --    32 c    1.380    44 c    1.255    30 c    1.190
    44   6 c    3.822 --    55 c    1.436    43 c    1.255    64 h    0.967
    45   6 c    3.845 --    46 c    1.459    34 c    1.288    69 h    0.969
    46   6 c    3.975 --    45 c    1.459    57 c    1.428    26 h    0.970
    47   6 c    3.971 --    36 c    1.352    34 c    1.197    48 c    1.189
    48   6 c    3.980 --    58 c    1.316    57 c    1.313    47 c    1.189
    49   6 c    3.964 --    38 c    1.418    36 c    1.178    50 c    1.160
    50   6 c    3.982 --    58 c    1.362    59 c    1.301    49 c    1.160
    51   6 c    3.951 --    40 c    1.292    38 c    1.265    52 c    1.175
    52   6 c    3.977 --    59 c    1.393    60 c    1.251    51 c    1.175
    53   6 c    3.952 --    40 c    1.291    42 c    1.276    54 c    1.169
    54   6 c    3.974 --    60 c    1.479    53 c    1.169    61 c    1.168
    55   6 c    3.978 --    44 c    1.436    42 c    1.220    56 c    1.163
    56   6 c    3.967 --    61 c    1.694    55 c    1.163    65 h    0.968
    57   6 c    3.838 --    46 c    1.428    48 c    1.313    75 h    0.969
    58   6 c    3.811 --    50 c    1.362    48 c    1.316    76 h    0.966
    59   6 c    3.856 --    52 c    1.393    50 c    1.301    77 h    0.966
    60   6 c    3.905 --    54 c    1.479    52 c    1.251    78 h    0.966
    61   6 c    3.973 --    56 c    1.694    54 c    1.168    79 h    0.967
    62   1 h    0.998 --    20 c    0.969
    63   1 h    0.998 --    32 c    0.967
    64   1 h    0.998 --    44 c    0.967
    65   1 h    0.997 --    56 c    0.968
    66   1 h    0.997 --     9 c    0.967
    67   1 h    0.998 --    21 c    0.966
    68   1 h    0.997 --    33 c    0.966
    69   1 h    0.998 --    45 c    0.969
    70   1 h    0.997 --     4 c    0.967
    71   1 h    0.997 --     5 c    0.966
    72   1 h    0.997 --     6 c    0.966
    73   1 h    0.997 --     7 c    0.966
    74   1 h    0.998 --     8 c    0.969
    75   1 h    0.998 --    57 c    0.969
    76   1 h    0.997 --    58 c    0.966
    77   1 h    0.997 --    59 c    0.966
    78   1 h    0.997 --    60 c    0.966
    79   1 h    0.997 --    61 c    0.967
    80   1 h    0.998 --    19 c    0.970
    81   1 h    0.997 --    25 c    0.947
    82   1 h    0.991 --    37 c    0.917
    83   8 o    1.939 --    39 c    1.640
    84   1 h    0.979 --    37 c    0.873
 ---------------------------------------------------------------------------

Topologies differ in total number of bonds
Writing topology from bond orders to xtbtopo.mol

molecular dipole:
                 x           y           z       tot (Debye)
 q only:        0.022      -0.216      -1.070
   full:        0.012      -0.050      -1.056       2.687
molecular quadrupole (traceless):
                xx          xy          yy          xz          yz          zz
 q only:       38.479     -10.956      23.504     -10.351     -23.260     -61.983
  q+dip:       52.015     -11.353      40.612     -11.653     -19.774     -92.627
   full:       40.106     -11.310      30.621     -10.619     -17.976     -70.727


           -------------------------------------------------
          | TOTAL ENERGY             -148.299072869812 Eh   |
          | GRADIENT NORM               0.000763325914 Eh/α |
          | HOMO-LUMO GAP               0.250574961272 eV   |
           -------------------------------------------------

------------------------------------------------------------------------
 * finished run on 2024/11/21 at 16:53:38.104     
------------------------------------------------------------------------
 total:
 * wall-time:     0 d,  0 h,  0 min,  1.182 sec
 *  cpu-time:     0 d,  0 h,  0 min, 28.360 sec
 * ratio c/w:    23.985 speedup
 SCF:
 * wall-time:     0 d,  0 h,  0 min,  1.133 sec
 *  cpu-time:     0 d,  0 h,  0 min, 27.175 sec
 * ratio c/w:    23.990 speedup

