      -----------------------------------------------------------      
     |                   =====================                   |     
     |                           x T B                           |     
     |                   =====================                   |     
     |                         S. Grimme                         |     
     |          Mulliken Center for Theoretical Chemistry        |     
     |                    University of Bonn                     |     
      -----------------------------------------------------------      

   * xtb version 6.7.1 (edcfbbe) compiled by 'conda@3ef47c1a292c' on 2024-11-25

   xtb is free software: you can redistribute it and/or modify it under
   the terms of the GNU Lesser General Public License as published by
   the Free Software Foundation, either version 3 of the License, or
   (at your option) any later version.
   
   xtb is distributed in the hope that it will be useful,
   but WITHOUT ANY WARRANTY; without even the implied warranty of
   MERCHANTABILITY or FITNESS FOR A PARTICULAR PURPOSE.  See the
   GNU Lesser General Public License for more details.
   
   Cite this work as:
   * C. Bannwarth, E. Caldeweyher, S. Ehlert, A. Hansen, P. Pracht,
     J. Seibert, S. Spicher, S. Grimme, WIREs Comput. Mol. Sci., 2020, 11,
     e01493. DOI: 10.1002/wcms.1493
   
   for GFN2-xTB:
   * C. Bannwarth, S. Ehlert and S. Grimme., J. Chem. Theory Comput., 2019,
     15, 1652-1671. DOI: 10.1021/acs.jctc.8b01176
   for GFN1-xTB:
   * S. Grimme, C. Bannwarth, P. Shushkov, J. Chem. Theory Comput., 2017,
     13, 1989-2009. DOI: 10.1021/acs.jctc.7b00118
   for GFN0-xTB:
   * P. Pracht, E. Caldeweyher, S. Ehlert, S. Grimme, ChemRxiv, 2019, preprint.
     DOI: 10.26434/chemrxiv.8326202.v1
   for GFN-FF:
   * S. Spicher and S. Grimme, Angew. Chem. Int. Ed., 2020, 59, 15665-15673.
     DOI: 10.1002/anie.202004239
   
   for ALPB and GBSA implicit solvation:
   * S. Ehlert, M. Stahn, S. Spicher, S. Grimme, J. Chem. Theory Comput.,
     2021, 17, 4250-4261. DOI: 10.1021/acs.jctc.1c00471
   
   for ddCOSMO and CPCM-X implicit solvation:
   * M. Stahn, S. Ehlert, S. Grimme, J. Phys. Chem. A,
     2023, XX, XXXX-XXXX. DOI: 10.1021/acs.jpca.3c04382
   
   for DFT-D4:
   * E. Caldeweyher, C. Bannwarth and S. Grimme, J. Chem. Phys., 2017,
     147, 034112. DOI: 10.1063/1.4993215
   * E. Caldeweyher, S. Ehlert, A. Hansen, H. Neugebauer, S. Spicher,
     C. Bannwarth and S. Grimme, J. Chem. Phys., 2019, 150, 154122.
     DOI: 10.1063/1.5090222
   * E. Caldeweyher, J.-M. Mewes, S. Ehlert and S. Grimme, Phys. Chem. Chem. Phys.
     2020, 22, 8499-8512. DOI: 10.1039/D0CP00502A
   
   for sTDA-xTB:
   * S. Grimme and C. Bannwarth, J. Chem. Phys., 2016, 145, 054103.
     DOI: 10.1063/1.4959605
   
   in the mass-spec context:
   * V. Asgeirsson, C. Bauer and S. Grimme, Chem. Sci., 2017, 8, 4879.
     DOI: 10.1039/c7sc00601b
   * J. Koopman and S. Grimme, ACS Omega 2019, 4, 12, 15120-15133.
     DOI: 10.1021/acsomega.9b02011
   
   for metadynamics refer to:
   * S. Grimme, J. Chem. Theory Comput., 2019, 155, 2847-2862
     DOI: 10.1021/acs.jctc.9b00143
   
   for SPH calculations refer to:
   * S. Spicher and S. Grimme, J. Chem. Theory Comput., 2021, 17, 1701-1714
     DOI: 10.1021/acs.jctc.0c01306
   
   for ONIOM refer to:
   * C. Plett, A. Katbashev, S. Ehlert, S. Grimme, M. Bursch,
     Phys. Chem. Chem. Phys., 2023, 25, 17860-17868. DOI: 10.1039/D3CP02178E
   
   for DIPRO refer to:
   * J. Kohn, N. Gildemeister, S. Grimme, D. Fazzi, A. Hansen,
     J. Chem. Phys., 2023, just accepted.
   
   for PTB refer to:
   * S. Grimme, M. Mueller, A. Hansen, J. Chem. Phys., 2023, 158, 124111.
     DOI: 10.1063/5.0137838
   
   with help from (in alphabetical order)
   P. Atkinson, C. Bannwarth, F. Bohle, G. Brandenburg, E. Caldeweyher
   M. Checinski, S. Dohm, S. Ehlert, S. Ehrlich, I. Gerasimov, C. Hölzer
   A. Katbashev, J. Kohn, J. Koopman, C. Lavigne, S. Lehtola, F. März, M. Müller,
   F. Musil, H. Neugebauer, J. Pisarek, C. Plett, P. Pracht, F. Pultar,
   J. Seibert, P. Shushkov, S. Spicher, M. Stahn, M. Steiner, T. Strunk,
   J. Stückrath, T. Rose, and J. Unsleber
   
 * started run on 2025/01/15 at 17:23:25.704     
   ID    Z sym.   atoms
    1    6 c      1-22, 24-58
    2    1 h      23, 59-79, 81
    3    8 o      80

           -------------------------------------------------
          |                Calculation Setup                |
           -------------------------------------------------

          program call               : xtb defect --opt
          coordinate file            : defect
          omp threads                :                    16


           -------------------------------------------------
          |                 G F N 2 - x T B                 |
           -------------------------------------------------

        Reference                      10.1021/acs.jctc.8b01176
      * Hamiltonian:
        H0-scaling (s, p, d)           1.850000    2.230000    2.230000
        zeta-weighting                 0.500000
      * Dispersion:
        s8                             2.700000
        a1                             0.520000
        a2                             5.000000
        s9                             5.000000
      * Repulsion:
        kExp                           1.500000    1.000000
        rExp                           1.000000
      * Coulomb:
        alpha                          2.000000
        third order                    shell-resolved
        anisotropic                    true
        a3                             3.000000
        a5                             4.000000
        cn-shift                       1.200000
        cn-exp                         4.000000
        max-rad                        5.000000


          ...................................................
          :                      SETUP                      :
          :.................................................:
          :  # basis functions                 255          :
          :  # atomic orbitals                 255          :
          :  # shells                          139          :
          :  # electrons                       257          :
          :  max. iterations                   250          :
          :  Hamiltonian                  GFN2-xTB          :
          :  restarted?                      false          :
          :  GBSA solvation                  false          :
          :  PC potential                    false          :
          :  electronic temp.          300.0000000     K    :
          :  accuracy                    1.0000000          :
          :  -> integral cutoff          0.2500000E+02      :
          :  -> integral neglect         0.1000000E-07      :
          :  -> SCF convergence          0.1000000E-05 Eh   :
          :  -> wf. convergence          0.1000000E-03 e    :
          :  Broyden damping             0.4000000          :
          :  net charge                          0          :
          :  unpaired electrons                  0          :
          ...................................................

 iter      E             dE          RMSdq      gap      omega  full diag
   1   -140.5229825 -0.140523E+03  0.490E+00    0.29       0.0  T
   2   -140.3309384  0.192044E+00  0.304E+00    0.31       1.0  T
   3   -138.4974689  0.183347E+01  0.345E+00    0.33       1.0  T
   4   -140.2433760 -0.174591E+01  0.142E+00    0.75       1.0  T
   5   -140.3319686 -0.885925E-01  0.144E+00    0.85       1.0  T
   6   -140.5175457 -0.185577E+00  0.855E-01    0.38       1.0  T
   7   -140.5583463 -0.408006E-01  0.612E-01    0.31       1.0  T
   8   -140.5859876 -0.276413E-01  0.418E-01    0.32       1.0  T
   9   -140.5945298 -0.854226E-02  0.256E-01    0.21       1.0  T
  10   -140.6005371 -0.600727E-02  0.224E-01    0.27       1.0  T
  11   -140.6065679 -0.603081E-02  0.391E-02    0.25       1.0  T
  12   -140.6062022  0.365693E-03  0.568E-02    0.24       1.0  T
  13   -140.6066674 -0.465158E-03  0.105E-02    0.25       1.1  T
  14   -140.6066715 -0.410262E-05  0.744E-03    0.25       1.5  T
  15   -140.6066785 -0.704766E-05  0.256E-03    0.25       4.3  T
  16   -140.6066783  0.263994E-06  0.235E-03    0.25       4.7  T
  17   -140.6066790 -0.735806E-06  0.656E-04    0.25      16.9  T
  18   -140.6066790 -0.201248E-07  0.496E-04    0.25      22.4  T

   *** convergence criteria satisfied after 18 iterations ***

         #    Occupation            Energy/Eh            Energy/eV
      -------------------------------------------------------------
         1        2.0000           -0.6817212             -18.5506
       ...           ...                  ...                  ...
       123        2.0000           -0.3856454             -10.4939
       124        2.0000           -0.3763586             -10.2412
       125        2.0000           -0.3701196             -10.0715
       126        2.0000           -0.3642226              -9.9110
       127        2.0000           -0.3519808              -9.5779
       128        1.8283           -0.3339977              -9.0885
       129        1.1637           -0.3310036              -9.0071 (HOMO)
       130        0.0080           -0.3217979              -8.7566 (LUMO)
       131                         -0.2924235              -7.9572
       132                         -0.2722324              -7.4078
       133                         -0.2667391              -7.2583
       134                         -0.2512325              -6.8364
       ...                                ...                  ...
       255                          0.7508146              20.4307
      -------------------------------------------------------------
                  HL-Gap            0.0092057 Eh            0.2505 eV
             Fermi-level           -0.3294406 Eh           -8.9645 eV

 SCC (total)                   0 d,  0 h,  0 min,  0.744 sec
 SCC setup                      ...        0 min,  0.001 sec (  0.087%)
 Dispersion                     ...        0 min,  0.005 sec (  0.619%)
 classical contributions        ...        0 min,  0.000 sec (  0.033%)
 integral evaluation            ...        0 min,  0.014 sec (  1.884%)
 iterations                     ...        0 min,  0.664 sec ( 89.296%)
 molecular gradient             ...        0 min,  0.038 sec (  5.170%)
 printout                       ...        0 min,  0.022 sec (  2.906%)

         :::::::::::::::::::::::::::::::::::::::::::::::::::::
         ::                     SUMMARY                     ::
         :::::::::::::::::::::::::::::::::::::::::::::::::::::
         :: total energy            -137.990664301447 Eh    ::
         :: gradient norm              0.000161968413 Eh/a0 ::
         :: HOMO-LUMO gap              0.250499310714 eV    ::
         ::.................................................::
         :: SCC energy              -140.608275058742 Eh    ::
         :: -> isotropic ES            0.035714043053 Eh    ::
         :: -> anisotropic ES          0.004714386646 Eh    ::
         :: -> anisotropic XC          0.061530392606 Eh    ::
         :: -> dispersion             -0.149646178426 Eh    ::
         :: repulsion energy           2.617610757294 Eh    ::
         :: add. restraining           0.000000000000 Eh    ::
         :: total charge              -0.000000000000 e     ::
         :::::::::::::::::::::::::::::::::::::::::::::::::::::

      ----------------------------------------------------------- 
     |                   =====================                   |
     |                        A N C O P T                        |
     |                   =====================                   |
     |               Approximate Normal Coordinate               |
     |                Rational Function Optimizer                |
      ----------------------------------------------------------- 
      ----------------------------------------------------------- 
     |                   =====================                   |
     |                        A N C O P T                        |
     |                   =====================                   |
     |               Approximate Normal Coordinate               |
     |                Rational Function Optimizer                |
      ----------------------------------------------------------- 

          ...................................................
          :                      SETUP                      :
          :.................................................:
          :   optimization level            normal          :
          :   max. optcycles                   243          :
          :   ANC micro-cycles                  20          :
          :   degrees of freedom               237          :
          :.................................................:
          :   RF solver                   davidson          :
          :   write xtbopt.log                true          :
          :   linear?                        false          :
          :   energy convergence         0.5000000E-05 Eh   :
          :   grad. convergence          0.1000000E-02 Eh/α :
          :   maxmium RF displ.          1.0000000          :
          :   Hlow (freq-cutoff)         0.1000000E-01      :
          :   Hmax (freq-cutoff)         5.0000000          :
          :   S6 in model hess.         20.0000000          :
          ...................................................

generating ANC from exact Hessian ...
Using Lindh-Hessian (1995)
 Shifting diagonal of input Hessian by    9.7451283075897233E-003
 Lowest  eigenvalues of input Hessian
    0.000000    0.000000    0.000000    0.000000    0.000000    0.000000
    0.010000    0.010474    0.010849    0.011064    0.011697    0.013225
    0.013906    0.014099    0.015252    0.016604    0.016930    0.017439
 Highest eigenvalues
    2.102615    2.123993    2.152558    2.162476    2.165691    2.195409


........................................................................
.............................. CYCLE    1 ..............................
........................................................................

 iter      E             dE          RMSdq      gap      omega  full diag
   1   -140.6066791 -0.140607E+03  0.170E-04    0.25       0.0  T
   2   -140.6066790  0.971721E-07  0.791E-04    0.25      14.1  T
   3   -140.6066790 -0.782191E-07  0.353E-04    0.25      31.4  T
     SCC iter.                  ...        0 min,  0.114 sec
     gradient                   ...        0 min,  0.037 sec
 * total energy  :  -137.9906643 Eh     change       -0.6821068E-08 Eh
   gradient norm :     0.0001618 Eh/α   predicted     0.0000000E+00 (-100.00%)
   displ. norm   :     0.0129450 α      lambda       -0.4287884E-07
   maximum displ.:     0.0119135 α      in ANC's #2, #4, #15, ...

   *** GEOMETRY OPTIMIZATION CONVERGED AFTER 1 ITERATIONS ***

------------------------------------------------------------------------
 total energy gain   :        -0.0000000 Eh       -0.0000 kcal/mol
 total RMSD          :         0.0000000 a0        0.0000 Å
 total power (kW/mol):        -0.0000179 (step)   -0.0001 (real)
------------------------------------------------------------------------

 ANCopt (total)                0 d,  0 h,  0 min,  0.229 sec
 optimizer setup                ...        0 min,  0.000 sec (  0.068%)
 model hessian                  ...        0 min,  0.025 sec ( 10.704%)
 ANC generation                 ...        0 min,  0.016 sec (  6.927%)
 coordinate transformation      ...        0 min,  0.000 sec (  0.029%)
 single point calculation       ...        0 min,  0.188 sec ( 82.061%)
 optimization log               ...        0 min,  0.000 sec (  0.105%)
 hessian update                 ...        0 min,  0.000 sec (  0.001%)
 rational function              ...        0 min,  0.000 sec (  0.058%)

================
 final structure:
================
$coord
        2.40754264517974        1.39673236998268       18.96324785415323      c
        0.09541865117381        5.40574287851497       19.39485328635410      c
       -2.25344106962371        9.47307447456425       19.69509459557743      c
       -4.51223575918511       13.51825306139363       19.39706776609965      c
       -6.78797993782667       17.55821511953896       19.06469778168612      c
        4.57433780359709        0.12109898833682       18.55292755042511      c
        6.94403603908933        1.40363546312671       18.24600998021457      c
        2.32209842741533        4.10588364882165       18.92553863112369      c
        4.57618184584368        5.44390596908747       18.23921321445857      c
       -0.03454328294162        8.07378412040893       19.41858001333836      c
        2.23826065461668        9.40158739608972       18.84506580879873      c
       -2.27951733692465       12.12024735874453       19.37241353859607      c
        0.06676477054160       13.45358945102996       19.08221696999057      c
       -4.52911952253870       16.15931056207001       19.10453297835675      c
       -2.19816918873804       17.47716560987434       18.85500012490470      c
       -6.74607721438043       20.15446311246796       18.77901718988667      c
       -4.48798552553046       21.44377574816899       18.53441144255387      c
        9.19895781967170        0.08203670082994       18.24207177017223      c
       11.57083496956609        1.29785545428314       18.30315589836881      c
        6.94739736668771        4.10408624408184       18.09468845402383      c
        9.32384108433507        5.30537548858159       18.14974715916511      c
        4.29178464017533        8.06149789204364       17.93516159879066      c
       22.49694269874524        0.21973835036142       19.03494090890499      h
        2.34771010235377       12.10955337339707       19.05846186464636      c
        4.65115782055676       13.46015945128396       19.27266204207553      c
        0.09639525976351       16.12336236228991       18.89177145190761      c
        2.42118906513696       17.43099135617298       18.69702143848604      c
       -2.16716036963624       20.14856022560081       18.57188867520831      c
        0.16299852344758       21.40992275851692       18.36007140670321      c
       13.86408787666946        0.00217739842105       18.39531413549948      c
       16.17100417777040        1.28020621021329       18.60851716301058      c
       11.59785895712911        3.99630376224508       18.36408806280297      c
       13.92969671446058        5.32820948456563       18.68397599458500      c
        9.40556214015155        8.08433544368463       18.28926378907521      c
       11.76707080204425        9.37723007148493       19.00916729031249      c
        6.93344054235482       12.34200374921218       20.33711326679542      c
        9.36497935773492       13.41114308555364       19.50977845539608      c
        4.71090105611952       16.09579389403534       18.92503867435644      c
        7.07212170717022       17.39714636117525       18.91732208611050      c
        2.45144073066071       20.11823070865616       18.44270528671424      c
        4.81875945337668       21.35799457970655       18.34644476805537      c
       18.48911174736878       -0.02369354326097       18.70177321108285      c
       20.74166476761855        1.26121894767901       18.97183163802365      c
       16.19377375027558        3.97680469508138       18.79266117840431      c
       18.54278358276596        5.28611015616133       19.10485194071080      c
       13.99046683850646        8.02190613766926       18.99944382709262      c
       16.34202405977594        9.34049585384496       19.28193558737681      c
       11.65749616391768       12.02701119562322       19.36848331393722      c
       14.02077203285145       13.36215799503416       19.33929463952645      c
        9.36523753027941       16.04645961405077       19.11702219358383      c
       11.73442702151012       17.35792978291414       18.98116767138522      c
        7.07666627955895       20.06335784097160       18.57996879859341      c
        9.47443937458676       21.32900328731180       18.49683406149457      c
       20.78404969077915        3.86917252390894       19.17538893825077      c
       18.56584525861223        7.93050683471834       19.31676677666509      c
       16.27235257206463       11.99908717419148       19.36478948839398      c
       13.96333501969883       16.03536078987617       19.20909802352106      c
       11.67132345360928       20.05088213381202       18.68581935728745      c
       -4.48359826590090       23.47370856314226       18.31690901616068      h
        0.16647370369958       23.44390347869196       18.16921142730533      h
        4.84481559228159       23.38769497094853       18.11421126730826      h
        9.46785443636019       23.35915302949196       18.26999228403269      h
        4.59737901611964       -1.92149900473375       18.56707706696851      h
        9.15472034887924       -1.96026784234283       18.30177988502178      h
       13.86682307731370       -2.03977461390917       18.32436731142390      h
       18.47793794473793       -2.06062195492961       18.56368052409302      h
        0.66491058552532        0.39529437751705       19.32875737651548      h
       -1.61487276160690        4.34326566206914       19.74755335425138      h
       -4.01820470343347        8.51027615065512       20.05818366268814      h
       -6.29411425006874       12.54853699036849       19.64240896632074      h
       -8.56619277682087       16.57404452399884       19.25651348008192      h
       22.56241267932436        4.84715501201183       19.39871141770582      h
       20.36097061782687        8.88642209964847       19.51370921389049      h
       18.04310043366679       13.01887600572495       19.38933603744045      h
       15.73794702978539       17.04941779449416       19.22386751389681      h
       13.45884546615648       21.03765054853432       18.61479496100047      h
       -8.50493610869305       21.19157328331164       18.74955832325635      h
        5.59598865799373        9.18455710010509       16.87744088787261      h
        8.86928028358384        8.91318646117902       16.47176774427312      h
        6.79858797256517       10.72923091095584       22.01384668305035      o
        7.99101514725280        8.52028007755057       19.71564126934150      h
$end

 Bond Distances (Angstroems)
 ---------------------------
C1-C6=1.3482         C1-C8=1.4345         C1-H67=1.0810        C2-C8=1.3868         C2-C10=1.4136        C2-H68=1.0817        
C3-C10=1.3959        C3-C12=1.4113        C3-H69=1.0810        C4-C12=1.3941        C4-C14=1.4062        C4-H70=1.0813        
C5-C14=1.4062        C5-C16=1.3823        C5-H71=1.0803        C6-C1=1.3482         C6-C7=1.4351         C6-H63=1.0810        
C7-C6=1.4351         C7-C18=1.3831        C7-C20=1.4313        C8-C1=1.4345         C8-C2=1.3868         C8-C9=1.4339         
C9-C8=1.4339         C9-C20=1.4433        C9-C22=1.4026        C10-C2=1.4136        C10-C3=1.3959        C10-C11=1.4256       
C11-C10=1.4256       C11-C22=1.3841       C11-C24=1.4386       C12-C3=1.4113        C12-C4=1.3941        C12-C13=1.4363       
C13-C12=1.4363       C13-C24=1.4010       C13-C26=1.4165       C14-C4=1.4062        C14-C5=1.4062        C14-C15=1.4231       
C15-C14=1.4231       C15-C26=1.4100       C15-C28=1.4217       C16-C5=1.3823        C16-C17=1.3821       C16-H77=1.0806       
C17-C16=1.3821       C17-C28=1.4066       C17-H59=1.0803       C18-C7=1.3831        C18-C19=1.4108       C18-H64=1.0815       
C19-C18=1.4108       C19-C30=1.3947       C19-C32=1.4284       C20-C7=1.4313        C20-C9=1.4433        C20-C21=1.4094       
C21-C20=1.4094       C21-C32=1.3931       C21-C34=1.4730       C22-C9=1.4026        C22-C11=1.3841       C22-H78=1.0690       
H23-C43=1.0806       C24-C11=1.4386       C24-C13=1.4010       C24-C25=1.4176       C25-C24=1.4176       C25-C36=1.4581       
C25-C38=1.4072       C26-C13=1.4165       C26-C15=1.4100       C26-C27=1.4152       C27-C26=1.4152       C27-C38=1.4078       
C27-C40=1.4285       C28-C15=1.4217       C28-C17=1.4066       C28-C29=1.4066       C29-C28=1.4066       C29-C40=1.3913       
C29-H60=1.0811       C30-C19=1.3947       C30-C31=1.4001       C30-H65=1.0812       C31-C30=1.4001       C31-C42=1.4083       
C31-C44=1.4304       C32-C19=1.4284       C32-C21=1.3931       C32-C33=1.4311       C33-C32=1.4311       C33-C44=1.3965       
C33-C46=1.4355       C34-C21=1.4730       C34-C35=1.4747       C34-H79=1.0945       C34-H81=1.0878       C35-C34=1.4747       
C35-C46=1.3779       C35-C48=1.4162       C36-C25=1.4581       C36-C37=1.4722       C36-O80=1.2332       C37-C36=1.4722       
C37-C48=1.4191       C37-C50=1.4100       C38-C25=1.4072       C38-C27=1.4078       C38-C39=1.4267       C39-C38=1.4267       
C39-C50=1.4123       C39-C52=1.4221       C40-C27=1.4285       C40-C29=1.3913       C40-C41=1.4150       C41-C40=1.4150       
C41-C52=1.3828       C41-H61=1.0812       C42-C31=1.4083       C42-C43=1.3797       C42-H66=1.0804       C43-H23=1.0806       
C43-C42=1.3797       C43-C54=1.3844       C44-C31=1.4304       C44-C33=1.3965       C44-C45=1.4327       C45-C44=1.4327       
C45-C54=1.4037       C45-C55=1.4039       C46-C33=1.4355       C46-C35=1.3779       C46-C47=1.4345       C47-C46=1.4345       
C47-C55=1.3935       C47-C56=1.4080       C48-C35=1.4162       C48-C37=1.4191       C48-C49=1.4365       C49-C48=1.4365       
C49-C56=1.3929       C49-C57=1.4166       C50-C37=1.4100       C50-C39=1.4123       C50-C51=1.4348       C51-C50=1.4348       
C51-C57=1.3768       C51-C58=1.4340       C52-C39=1.4221       C52-C41=1.3828       C52-C53=1.4354       C53-C52=1.4354       
C53-C58=1.3487       C53-H62=1.0810       C54-C43=1.3844       C54-C45=1.4037       C54-H72=1.0805       C55-C45=1.4039       
C55-C47=1.3935       C55-H73=1.0813       C56-C47=1.4080       C56-C49=1.3929       C56-H74=1.0814       C57-C49=1.4166       
C57-C51=1.3768       C57-H75=1.0816       C58-C51=1.4340       C58-C53=1.3487       C58-H76=1.0811       H59-C17=1.0803       
H60-C29=1.0811       H61-C41=1.0812       H62-C53=1.0810       H63-C6=1.0810        H64-C18=1.0815       H65-C30=1.0812       
H66-C42=1.0804       H67-C1=1.0810        H68-C2=1.0817        H69-C3=1.0810        H70-C4=1.0813        H71-C5=1.0803        
H72-C54=1.0805       H73-C55=1.0813       H74-C56=1.0814       H75-C57=1.0816       H76-C58=1.0811       H77-C16=1.0806       
H78-C22=1.0690       H79-C34=1.0945       O80-C36=1.2332       H81-C34=1.0878       
 C  H  Rav=1.0814 sigma=0.0040  Rmin=1.0690  Rmax=1.0945    23
 C  C  Rav=1.4127 sigma=0.0243  Rmin=1.3482  Rmax=1.4747    74
 O  C  Rav=1.2332 sigma=0.0000  Rmin=1.2332  Rmax=1.2332     1

 selected bond angles (degree)
 --------------------
C8-C1-C6=121.67                H67-C1-C6=120.59               H67-C1-C8=117.74               C10-C2-C8=122.57               
H68-C2-C8=118.95               H68-C2-C10=118.48              C12-C3-C10=121.47              H69-C3-C10=119.69              
H69-C3-C12=118.74              C14-C4-C12=122.13              H70-C4-C12=119.23              H70-C4-C14=118.64              
C16-C5-C14=120.75              H71-C5-C14=119.03              H71-C5-C16=120.22              C7-C6-C1=121.64                
H63-C6-C1=120.61               H63-C6-C7=117.63               C18-C7-C6=120.99               C20-C7-C6=118.66               
C20-C7-C18=120.24              C2-C8-C1=121.33                C9-C8-C1=118.09                C9-C8-C2=120.48                
C20-C9-C8=119.61               C22-C9-C8=115.31               C22-C9-C20=124.91              C3-C10-C2=124.87               
C11-C10-C2=116.70              C11-C10-C3=118.07              

 selected dihedral angles (degree)
 ---------------------------------
C7-C6-C1-C8=  4.78            C7-C6-C1-H67=184.60           H63-C6-C1-C8=180.72           H63-C6-C1-H67=  0.54          
C18-C7-C6-C1=169.27           C18-C7-C6-H63=353.21          C20-C7-C6-C1=352.99           C20-C7-C6-H63=176.92          
C2-C8-C1-C6=181.19            C2-C8-C1-H67=  1.36           C9-C8-C1-C6=  4.83            C9-C8-C1-H67=185.01           
C1-C8-C2-C10=178.74           C1-C8-C2-H68=358.41           C9-C8-C2-C10=355.01           C9-C8-C2-H68=174.68           
C20-C9-C8-C1=347.99           C20-C9-C8-C2=171.60           C22-C9-C8-C1=172.49           C22-C9-C8-C2=356.10           
C3-C10-C2-C8=175.05           C3-C10-C2-H68=355.38          C11-C10-C2-C8=  2.11          C11-C10-C2-H68=182.45         
C2-C10-C3-C12=188.37          C2-C10-C3-H69=  4.79          C11-C10-C3-C12=  1.21         C11-C10-C3-H69=177.63         
           -------------------------------------------------
          |                Final Singlepoint                |
           -------------------------------------------------

          ...................................................
          :                      SETUP                      :
          :.................................................:
          :  # basis functions                 255          :
          :  # atomic orbitals                 255          :
          :  # shells                          139          :
          :  # electrons                       257          :
          :  max. iterations                   250          :
          :  Hamiltonian                  GFN2-xTB          :
          :  restarted?                      false          :
          :  GBSA solvation                  false          :
          :  PC potential                    false          :
          :  electronic temp.          300.0000000     K    :
          :  accuracy                    1.0000000          :
          :  -> integral cutoff          0.2500000E+02      :
          :  -> integral neglect         0.1000000E-07      :
          :  -> SCF convergence          0.1000000E-05 Eh   :
          :  -> wf. convergence          0.1000000E-03 e    :
          :  Broyden damping             0.4000000          :
          :  net charge                          0          :
          :  unpaired electrons                  0          :
          ...................................................

 iter      E             dE          RMSdq      gap      omega  full diag
   1   -140.6066791 -0.140607E+03  0.160E-04    0.25       0.0  T
   2   -140.6066789  0.120641E-06  0.890E-04    0.25      12.5  T
   3   -140.6066790 -0.111964E-06  0.273E-04    0.25      40.6  T

   *** convergence criteria satisfied after 3 iterations ***

         #    Occupation            Energy/Eh            Energy/eV
      -------------------------------------------------------------
         1        2.0000           -0.6817173             -18.5505
       ...           ...                  ...                  ...
       123        2.0000           -0.3856445             -10.4939
       124        2.0000           -0.3763570             -10.2412
       125        2.0000           -0.3701183             -10.0714
       126        2.0000           -0.3642208              -9.9110
       127        2.0000           -0.3519801              -9.5779
       128        1.8282           -0.3339975              -9.0885
       129        1.1638           -0.3310038              -9.0071 (HOMO)
       130        0.0080           -0.3217993              -8.7566 (LUMO)
       131                         -0.2924223              -7.9572
       132                         -0.2722316              -7.4078
       133                         -0.2667389              -7.2583
       134                         -0.2512322              -6.8364
       ...                                ...                  ...
       255                          0.7508160              20.4307
      -------------------------------------------------------------
                  HL-Gap            0.0092045 Eh            0.2505 eV
             Fermi-level           -0.3294410 Eh           -8.9645 eV

 SCC (total)                   0 d,  0 h,  0 min,  0.187 sec
 SCC setup                      ...        0 min,  0.000 sec (  0.249%)
 Dispersion                     ...        0 min,  0.001 sec (  0.778%)
 classical contributions        ...        0 min,  0.000 sec (  0.074%)
 integral evaluation            ...        0 min,  0.008 sec (  4.444%)
 iterations                     ...        0 min,  0.115 sec ( 61.501%)
 molecular gradient             ...        0 min,  0.039 sec ( 21.058%)
 printout                       ...        0 min,  0.022 sec ( 11.881%)

         :::::::::::::::::::::::::::::::::::::::::::::::::::::
         ::                     SUMMARY                     ::
         :::::::::::::::::::::::::::::::::::::::::::::::::::::
         :: total energy            -137.990664317768 Eh    ::
         :: gradient norm              0.000161933071 Eh/a0 ::
         :: HOMO-LUMO gap              0.250467946708 eV    ::
         ::.................................................::
         :: SCC energy              -140.608275075062 Eh    ::
         :: -> isotropic ES            0.035707600944 Eh    ::
         :: -> anisotropic ES          0.004715266071 Eh    ::
         :: -> anisotropic XC          0.061530112340 Eh    ::
         :: -> dispersion             -0.149645891186 Eh    ::
         :: repulsion energy           2.617610757294 Eh    ::
         :: add. restraining           0.000000000000 Eh    ::
         :: total charge              -0.000000000000 e     ::
         :::::::::::::::::::::::::::::::::::::::::::::::::::::


Property printout bound to 'properties.out'

optimized geometry written to: xtbopt.coord


           -------------------------------------------------
          | TOTAL ENERGY             -137.990664317768 Eh   |
          | GRADIENT NORM               0.000161933071 Eh/α |
          | HOMO-LUMO GAP               0.250467946708 eV   |
           -------------------------------------------------

------------------------------------------------------------------------
 * finished run on 2025/01/15 at 17:23:26.894     
------------------------------------------------------------------------
 total:
 * wall-time:     0 d,  0 h,  0 min,  1.190 sec
 *  cpu-time:     0 d,  0 h,  0 min,  3.779 sec
 * ratio c/w:     3.176 speedup
 SCF:
 * wall-time:     0 d,  0 h,  0 min,  0.745 sec
 *  cpu-time:     0 d,  0 h,  0 min,  1.948 sec
 * ratio c/w:     2.615 speedup
 ANC optimizer:
 * wall-time:     0 d,  0 h,  0 min,  0.417 sec
 *  cpu-time:     0 d,  0 h,  0 min,  1.675 sec
 * ratio c/w:     4.014 speedup

