      -----------------------------------------------------------      
     |                   =====================                   |     
     |                           x T B                           |     
     |                   =====================                   |     
     |                         S. Grimme                         |     
     |          Mulliken Center for Theoretical Chemistry        |     
     |                    University of Bonn                     |     
      -----------------------------------------------------------      

   * xtb version 6.7.1 (edcfbbe) compiled by 'conda@3ef47c1a292c' on 2024-11-25

   xtb is free software: you can redistribute it and/or modify it under
   the terms of the GNU Lesser General Public License as published by
   the Free Software Foundation, either version 3 of the License, or
   (at your option) any later version.
   
   xtb is distributed in the hope that it will be useful,
   but WITHOUT ANY WARRANTY; without even the implied warranty of
   MERCHANTABILITY or FITNESS FOR A PARTICULAR PURPOSE.  See the
   GNU Lesser General Public License for more details.
   
   Cite this work as:
   * C. Bannwarth, E. Caldeweyher, S. Ehlert, A. Hansen, P. Pracht,
     J. Seibert, S. Spicher, S. Grimme, WIREs Comput. Mol. Sci., 2020, 11,
     e01493. DOI: 10.1002/wcms.1493
   
   for GFN2-xTB:
   * C. Bannwarth, S. Ehlert and S. Grimme., J. Chem. Theory Comput., 2019,
     15, 1652-1671. DOI: 10.1021/acs.jctc.8b01176
   for GFN1-xTB:
   * S. Grimme, C. Bannwarth, P. Shushkov, J. Chem. Theory Comput., 2017,
     13, 1989-2009. DOI: 10.1021/acs.jctc.7b00118
   for GFN0-xTB:
   * P. Pracht, E. Caldeweyher, S. Ehlert, S. Grimme, ChemRxiv, 2019, preprint.
     DOI: 10.26434/chemrxiv.8326202.v1
   for GFN-FF:
   * S. Spicher and S. Grimme, Angew. Chem. Int. Ed., 2020, 59, 15665-15673.
     DOI: 10.1002/anie.202004239
   
   for ALPB and GBSA implicit solvation:
   * S. Ehlert, M. Stahn, S. Spicher, S. Grimme, J. Chem. Theory Comput.,
     2021, 17, 4250-4261. DOI: 10.1021/acs.jctc.1c00471
   
   for ddCOSMO and CPCM-X implicit solvation:
   * M. Stahn, S. Ehlert, S. Grimme, J. Phys. Chem. A,
     2023, XX, XXXX-XXXX. DOI: 10.1021/acs.jpca.3c04382
   
   for DFT-D4:
   * E. Caldeweyher, C. Bannwarth and S. Grimme, J. Chem. Phys., 2017,
     147, 034112. DOI: 10.1063/1.4993215
   * E. Caldeweyher, S. Ehlert, A. Hansen, H. Neugebauer, S. Spicher,
     C. Bannwarth and S. Grimme, J. Chem. Phys., 2019, 150, 154122.
     DOI: 10.1063/1.5090222
   * E. Caldeweyher, J.-M. Mewes, S. Ehlert and S. Grimme, Phys. Chem. Chem. Phys.
     2020, 22, 8499-8512. DOI: 10.1039/D0CP00502A
   
   for sTDA-xTB:
   * S. Grimme and C. Bannwarth, J. Chem. Phys., 2016, 145, 054103.
     DOI: 10.1063/1.4959605
   
   in the mass-spec context:
   * V. Asgeirsson, C. Bauer and S. Grimme, Chem. Sci., 2017, 8, 4879.
     DOI: 10.1039/c7sc00601b
   * J. Koopman and S. Grimme, ACS Omega 2019, 4, 12, 15120-15133.
     DOI: 10.1021/acsomega.9b02011
   
   for metadynamics refer to:
   * S. Grimme, J. Chem. Theory Comput., 2019, 155, 2847-2862
     DOI: 10.1021/acs.jctc.9b00143
   
   for SPH calculations refer to:
   * S. Spicher and S. Grimme, J. Chem. Theory Comput., 2021, 17, 1701-1714
     DOI: 10.1021/acs.jctc.0c01306
   
   for ONIOM refer to:
   * C. Plett, A. Katbashev, S. Ehlert, S. Grimme, M. Bursch,
     Phys. Chem. Chem. Phys., 2023, 25, 17860-17868. DOI: 10.1039/D3CP02178E
   
   for DIPRO refer to:
   * J. Kohn, N. Gildemeister, S. Grimme, D. Fazzi, A. Hansen,
     J. Chem. Phys., 2023, just accepted.
   
   for PTB refer to:
   * S. Grimme, M. Mueller, A. Hansen, J. Chem. Phys., 2023, 158, 124111.
     DOI: 10.1063/5.0137838
   
   with help from (in alphabetical order)
   P. Atkinson, C. Bannwarth, F. Bohle, G. Brandenburg, E. Caldeweyher
   M. Checinski, S. Dohm, S. Ehlert, S. Ehrlich, I. Gerasimov, C. Hölzer
   A. Katbashev, J. Kohn, J. Koopman, C. Lavigne, S. Lehtola, F. März, M. Müller,
   F. Musil, H. Neugebauer, J. Pisarek, C. Plett, P. Pracht, F. Pultar,
   J. Seibert, P. Shushkov, S. Spicher, M. Stahn, M. Steiner, T. Strunk,
   J. Stückrath, T. Rose, and J. Unsleber
   
 * started run on 2024/12/05 at 16:17:35.832     
   ID    Z sym.   atoms
    1    6 c      1-58
    2    1 h      59-78

           -------------------------------------------------
          |                Calculation Setup                |
           -------------------------------------------------

          program call               : xtb defect --opt
          coordinate file            : defect
          omp threads                :                    16


           -------------------------------------------------
          |                 G F N 2 - x T B                 |
           -------------------------------------------------

        Reference                      10.1021/acs.jctc.8b01176
      * Hamiltonian:
        H0-scaling (s, p, d)           1.850000    2.230000    2.230000
        zeta-weighting                 0.500000
      * Dispersion:
        s8                             2.700000
        a1                             0.520000
        a2                             5.000000
        s9                             5.000000
      * Repulsion:
        kExp                           1.500000    1.000000
        rExp                           1.000000
      * Coulomb:
        alpha                          2.000000
        third order                    shell-resolved
        anisotropic                    true
        a3                             3.000000
        a5                             4.000000
        cn-shift                       1.200000
        cn-exp                         4.000000
        max-rad                        5.000000


          ...................................................
          :                      SETUP                      :
          :.................................................:
          :  # basis functions                 252          :
          :  # atomic orbitals                 252          :
          :  # shells                          136          :
          :  # electrons                       252          :
          :  max. iterations                   250          :
          :  Hamiltonian                  GFN2-xTB          :
          :  restarted?                      false          :
          :  GBSA solvation                  false          :
          :  PC potential                    false          :
          :  electronic temp.          300.0000000     K    :
          :  accuracy                    1.0000000          :
          :  -> integral cutoff          0.2500000E+02      :
          :  -> integral neglect         0.1000000E-07      :
          :  -> SCF convergence          0.1000000E-05 Eh   :
          :  -> wf. convergence          0.1000000E-03 e    :
          :  Broyden damping             0.4000000          :
          :  net charge                          0          :
          :  unpaired electrons                  0          :
          ...................................................

 iter      E             dE          RMSdq      gap      omega  full diag
   1   -137.3504607 -0.137350E+03  0.479E+00    0.31       0.0  T
   2   -137.3781970 -0.277363E-01  0.286E+00    0.30       1.0  T
   3   -137.3183517  0.598453E-01  0.781E-01    0.32       1.0  T
   4   -137.3469729 -0.286212E-01  0.634E-01    0.33       1.0  T
   5   -137.3794481 -0.324752E-01  0.253E-01    0.31       1.0  T
   6   -137.3154829  0.639651E-01  0.669E-01    0.39       1.0  T
   7   -137.3850251 -0.695422E-01  0.109E-01    0.31       1.0  T
   8   -137.3865236 -0.149841E-02  0.249E-02    0.31       1.0  T
   9   -137.3865559 -0.323113E-04  0.137E-02    0.31       1.0  T
  10   -137.3865629 -0.699614E-05  0.734E-03    0.31       1.5  T
  11   -137.3865707 -0.782276E-05  0.142E-03    0.31       8.0  T
  12   -137.3865708 -0.145536E-06  0.530E-04    0.31      21.3  T
  13   -137.3865709 -0.256629E-07  0.253E-04    0.31      44.8  T

   *** convergence criteria satisfied after 13 iterations ***

         #    Occupation            Energy/Eh            Energy/eV
      -------------------------------------------------------------
         1        2.0000           -0.6609315             -17.9849
       ...           ...                  ...                  ...
       120        2.0000           -0.3918814             -10.6636
       121        2.0000           -0.3883180             -10.5667
       122        2.0000           -0.3849686             -10.4755
       123        2.0000           -0.3844822             -10.4623
       124        2.0000           -0.3676116             -10.0032
       125        2.0000           -0.3444552              -9.3731
       126        1.9949           -0.3297492              -8.9729 (HOMO)
       127        0.0051           -0.3184225              -8.6647 (LUMO)
       128                         -0.3023050              -8.2261
       129                         -0.2752640              -7.4903
       130                         -0.2530138              -6.8849
       131                         -0.2518211              -6.8524
       ...                                ...                  ...
       252                          0.7778073              21.1652
      -------------------------------------------------------------
                  HL-Gap            0.0113268 Eh            0.3082 eV
             Fermi-level           -0.3240859 Eh           -8.8188 eV

 SCC (total)                   0 d,  0 h,  0 min,  0.564 sec
 SCC setup                      ...        0 min,  0.001 sec (  0.220%)
 Dispersion                     ...        0 min,  0.005 sec (  0.833%)
 classical contributions        ...        0 min,  0.001 sec (  0.246%)
 integral evaluation            ...        0 min,  0.012 sec (  2.050%)
 iterations                     ...        0 min,  0.508 sec ( 90.074%)
 molecular gradient             ...        0 min,  0.032 sec (  5.644%)
 printout                       ...        0 min,  0.005 sec (  0.928%)

         :::::::::::::::::::::::::::::::::::::::::::::::::::::
         ::                     SUMMARY                     ::
         :::::::::::::::::::::::::::::::::::::::::::::::::::::
         :: total energy            -134.718093614605 Eh    ::
         :: gradient norm              0.000729912339 Eh/a0 ::
         :: HOMO-LUMO gap              0.308216981302 eV    ::
         ::.................................................::
         :: SCC energy              -137.389057209697 Eh    ::
         :: -> isotropic ES            0.001999628768 Eh    ::
         :: -> anisotropic ES          0.007721120041 Eh    ::
         :: -> anisotropic XC          0.058289552855 Eh    ::
         :: -> dispersion             -0.148582698352 Eh    ::
         :: repulsion energy           2.670963595092 Eh    ::
         :: add. restraining           0.000000000000 Eh    ::
         :: total charge               0.000000000751 e     ::
         :::::::::::::::::::::::::::::::::::::::::::::::::::::

      ----------------------------------------------------------- 
     |                   =====================                   |
     |                        A N C O P T                        |
     |                   =====================                   |
     |               Approximate Normal Coordinate               |
     |                Rational Function Optimizer                |
      ----------------------------------------------------------- 
      ----------------------------------------------------------- 
     |                   =====================                   |
     |                        A N C O P T                        |
     |                   =====================                   |
     |               Approximate Normal Coordinate               |
     |                Rational Function Optimizer                |
      ----------------------------------------------------------- 

          ...................................................
          :                      SETUP                      :
          :.................................................:
          :   optimization level            normal          :
          :   max. optcycles                   234          :
          :   ANC micro-cycles                  20          :
          :   degrees of freedom               228          :
          :.................................................:
          :   RF solver                   davidson          :
          :   write xtbopt.log                true          :
          :   linear?                        false          :
          :   energy convergence         0.5000000E-05 Eh   :
          :   grad. convergence          0.1000000E-02 Eh/α :
          :   maxmium RF displ.          1.0000000          :
          :   Hlow (freq-cutoff)         0.1000000E-01      :
          :   Hmax (freq-cutoff)         5.0000000          :
          :   S6 in model hess.         20.0000000          :
          ...................................................

generating ANC from exact Hessian ...
Using Lindh-Hessian (1995)
 Shifting diagonal of input Hessian by    9.7420464176836766E-003
 Lowest  eigenvalues of input Hessian
    0.000000    0.000000    0.000000    0.000000    0.000000    0.000000
    0.010000    0.010454    0.010945    0.011189    0.011718    0.013453
    0.014145    0.014167    0.016501    0.017464    0.017870    0.017999
 Highest eigenvalues
    2.115212    2.127821    2.173505    2.187158    2.187173    2.237776


........................................................................
.............................. CYCLE    1 ..............................
........................................................................

 iter      E             dE          RMSdq      gap      omega  full diag
   1   -137.3865709 -0.137387E+03  0.103E-04    0.31       0.0  T
   2   -137.3865709  0.157033E-08  0.128E-04    0.31      88.8  T
   3   -137.3865708  0.173435E-07  0.350E-04    0.31      32.3  T
     SCC iter.                  ...        0 min,  0.112 sec
     gradient                   ...        0 min,  0.033 sec
 * total energy  :  -134.7180936 Eh     change        0.1640575E-07 Eh
   gradient norm :     0.0007300 Eh/α   predicted     0.0000000E+00 (-100.00%)
   displ. norm   :     0.0059489 α      lambda       -0.1071328E-05
   maximum displ.:     0.0034376 α      in ANC's #23, #19, #67, ...

........................................................................
.............................. CYCLE    2 ..............................
........................................................................

 iter      E             dE          RMSdq      gap      omega  full diag
   1   -137.3866062 -0.137387E+03  0.239E-03    0.31       0.0  T
   2   -137.3866061  0.430589E-07  0.151E-03    0.31       7.5  T
   3   -137.3865914  0.146989E-04  0.961E-03    0.31       1.2  T
   4   -137.3866061 -0.146950E-04  0.681E-04    0.31      16.6  T
   5   -137.3866062 -0.453018E-07  0.245E-04    0.31      46.2  T
   6   -137.3866062 -0.592044E-08  0.934E-05    0.31     121.2  T
     SCC iter.                  ...        0 min,  0.219 sec
     gradient                   ...        0 min,  0.033 sec
 * total energy  :  -134.7180947 Eh     change       -0.1134251E-05 Eh
   gradient norm :     0.0002671 Eh/α   predicted    -0.6206755E-06 ( -45.28%)
   displ. norm   :     0.0022300 α      lambda       -0.1493299E-06
   maximum displ.:     0.0013684 α      in ANC's #23, #19, #67, ...

   *** GEOMETRY OPTIMIZATION CONVERGED AFTER 2 ITERATIONS ***

------------------------------------------------------------------------
 total energy gain   :        -0.0000011 Eh       -0.0007 kcal/mol
 total RMSD          :         0.0006736 a0        0.0004 Å
 total power (kW/mol):        -0.0014675 (step)   -0.0063 (real)
------------------------------------------------------------------------

 ANCopt (total)                0 d,  0 h,  0 min,  0.466 sec
 optimizer setup                ...        0 min,  0.000 sec (  0.034%)
 model hessian                  ...        0 min,  0.019 sec (  4.062%)
 ANC generation                 ...        0 min,  0.015 sec (  3.196%)
 coordinate transformation      ...        0 min,  0.000 sec (  0.027%)
 single point calculation       ...        0 min,  0.429 sec ( 92.074%)
 optimization log               ...        0 min,  0.000 sec (  0.100%)
 hessian update                 ...        0 min,  0.000 sec (  0.020%)
 rational function              ...        0 min,  0.000 sec (  0.071%)

================
 final structure:
================
$coord
        2.30752868952918        1.37087486690705       18.89726459019383      c
        0.02765331016018        5.42026513355074       18.89724568532789      c
       -2.25350580081570        9.45900390935669       18.89724529080566      c
       -4.52913222567516       13.49873914224775       18.89724085359073      c
       -6.80470781304093       17.55056738523141       18.89726736725618      c
        4.50394687953776        0.08122412264466       18.89726468853843      c
        6.89743611657573        1.35254560275536       18.89726505096217      c
        2.25158114722593        4.08016086753022       18.89725660111759      c
        4.61790308872388        5.39634081810148       18.89726136112320      c
       -0.01564256361792        8.09770321194469       18.89725226204682      c
        2.34185326977539        9.42321482354071       18.89725994299531      c
       -2.28422158058528       12.12113098029965       18.89724954850318      c
        0.06937397382721       13.44898973288262       18.89725914576164      c
       -4.54410871057520       16.14853988110030       18.89725774504242      c
       -2.20343403962700       17.47517449346275       18.89725879936208      c
       -6.75979376477758       20.15883783403105       18.89728152749354      c
       -4.49425736944659       21.46191608383095       18.89725851486125      c
        9.15160148497739        0.06300621191770       18.89725168793130      c
       11.51042674076965        1.33029560072848       18.89725721055366      c
        6.89543994621298        4.05881236116494       18.89726670658356      c
        9.23500824524522        5.37295949251152       18.89727193949761      c
        4.62687387904642        8.07734968900830       18.89726632334980      c
        6.96388139788601        9.39783878779564       18.89727395588791      c
        2.35650039112566       12.09830897836974       18.89726767050145      c
        4.69242288160064       13.41959924833709       18.89727330919527      c
        0.09006036507664       16.12358277147345       18.89726056069535      c
        2.42208903164139       17.44099723526126       18.89726037574064      c
       -2.17899167214166       20.16259375478933       18.89725120788413      c
        0.15452566468593       21.43483090329013       18.89723957534718      c
       13.79164677370917        0.03671973065805       18.89724700947820      c
       16.12516010619758        1.30895747600887       18.89725743953201      c
       11.52408715986392        4.03054703452762       18.89726502243984      c
       13.85611166217106        5.34796765012848       18.89726412718232      c
        9.25375140974541        8.05194559759239       18.89727331955239      c
       11.58967453102246        9.37323560417786       18.89726316939304      c
        6.98229495995027       12.07370759682661       18.89727327943875      c
        9.31930539619225       13.39419365411239       18.89726765424533      c
        4.71116912624528       16.09858823659386       18.89726383569782      c
        7.05074151510362       17.41272840575202       18.89726327770067      c
        2.43574788615716       20.14125044787243       18.89724633914904      c
        4.79457266184910       21.40853103961151       18.89724691297817      c
       18.44043010898599        0.00964243300321       18.89726149350728      c
       20.70596972680124        1.31271324904440       18.89727016838467      c
       16.14960224976996        3.99637290185675       18.89725883145630      c
       18.49027868714176        5.32301429160932       18.89725477244869      c
       13.87679767363022        8.02255488846525       18.89726343657625      c
       16.23039259236764        9.35041512200815       18.89725310822687      c
       11.60432582379227       12.04832735215707       18.89725958455995      c
       13.96182151183262       13.37383637286420       18.89725398753703      c
        9.32827757756591       16.07520382942083       18.89726029447747      c
       11.69460732522340       17.39138220559561       18.89725544905397      c
        7.04874746795262       20.11900680646261       18.89725263402945      c
        9.44223571700006       21.39031681506636       18.89726080240801      c
       20.75087470881011        3.92099070813094       18.89726193430107      c
       18.47530334903599        7.97280692796615       18.89724967970605      c
       16.19968152077228       12.01253198956719       18.89725039283998      c
       13.91853576851202       16.05126899050163       18.89724862955467      c
       11.63865825899126       20.10066186192894       18.89726282679928      c
       -4.48198088185361       23.50332038231935       18.89725292097888      h
        0.16088806273155       23.47799369137483       18.89724242515291      h
        4.79754886617505       23.45209708558174       18.89724768280081      h
        9.42998586599809       23.43307959888209       18.89725371009936      h
        4.51620482922004       -1.96153597876423       18.89725001883988      h
        9.14862476637548       -1.98055599540928       18.89723428545435      h
       13.78529516423166       -2.00643017561674       18.89723858239191      h
       18.42814732614387       -2.03176329625349       18.89725376353443      h
        0.51780286454409        0.38599520492386       18.89724070058566      h
       -1.75551965582821        4.42207961164510       18.89723715790067      h
       -4.03540048704217        8.45945277806274       18.89722984406457      h
       -6.31166556986041       12.50063941430569       18.89724027228148      h
       -8.58464657598552       16.55086449416206       18.89724628583349      h
       22.53080787430923        4.92070676414448       18.89725458192602      h
       20.25783331451152        8.97092536757463       18.89725232518847      h
       17.98157583565539       13.01208684336776       18.89724203687629      h
       15.70171412877486       17.04944640521913       18.89724046954003      h
       13.42835918015055       21.08557378155089       18.89724286333286      h
       -8.51824461492893       21.19736124439680       18.89721947495750      h
       22.46443081921737        0.27421589490080       18.89724675092512      h
$end

 Bond Distances (Angstroems)
 ---------------------------
C1-C6=1.3478         C1-C8=1.4340         C1-H67=1.0810        C2-C8=1.3740         C2-C10=1.4170        C2-H68=1.0814        
C3-C10=1.3861        C3-C12=1.4088        C3-H69=1.0812        C4-C12=1.3938        C4-C14=1.4022        C4-H70=1.0811        
C5-C14=1.4077        C5-C16=1.3804        C5-H71=1.0803        C6-C1=1.3478         C6-C7=1.4342         C6-H63=1.0810        
C7-C6=1.4342         C7-C18=1.3742        C7-C20=1.4321        C8-C1=1.4340         C8-C2=1.3740         C8-C9=1.4329         
C9-C8=1.4329         C9-C20=1.3977        C9-C22=1.4187        C10-C2=1.4170        C10-C3=1.3861        C10-C11=1.4312       
C11-C10=1.4312       C11-C22=1.4033       C11-C24=1.4156       C12-C3=1.4088        C12-C4=1.3938        C12-C13=1.4300       
C13-C12=1.4300       C13-C24=1.4056       C13-C26=1.4154       C14-C4=1.4022        C14-C5=1.4077        C14-C15=1.4237       
C15-C14=1.4237       C15-C26=1.4087       C15-C28=1.4222       C16-C5=1.3804        C16-C17=1.3830       C16-H77=1.0807       
C17-C16=1.3830       C17-C28=1.4049       C17-H59=1.0803       C18-C7=1.3742        C18-C19=1.4170       C18-H64=1.0814       
C19-C18=1.4170       C19-C30=1.3877       C19-C32=1.4289       C20-C7=1.4321        C20-C9=1.3977        C20-C21=1.4200       
C21-C20=1.4200       C21-C32=1.4043       C21-C34=1.4177       C22-C9=1.4187        C22-C11=1.4033       C22-C23=1.4205       
C23-C22=1.4205       C23-C34=1.4056       C23-C36=1.4160       C24-C11=1.4156       C24-C13=1.4056       C24-C25=1.4202       
C25-C24=1.4202       C25-C36=1.4056       C25-C38=1.4177       C26-C13=1.4154       C26-C15=1.4087       C26-C27=1.4174       
C27-C26=1.4174       C27-C38=1.4043       C27-C40=1.4289       C28-C15=1.4222       C28-C17=1.4049       C28-C29=1.4064       
C29-C28=1.4064       C29-C40=1.3877       C29-H60=1.0812       C30-C19=1.3877       C30-C31=1.4064       C30-H65=1.0812       
C31-C30=1.4064       C31-C42=1.4049       C31-C44=1.4222       C32-C19=1.4289       C32-C21=1.4043       C32-C33=1.4174       
C33-C32=1.4174       C33-C44=1.4087       C33-C46=1.4154       C34-C21=1.4177       C34-C23=1.4056       C34-C35=1.4202       
C35-C34=1.4202       C35-C46=1.4056       C35-C48=1.4156       C36-C23=1.4160       C36-C25=1.4056       C36-C37=1.4205       
C37-C36=1.4205       C37-C48=1.4033       C37-C50=1.4187       C38-C25=1.4177       C38-C27=1.4043       C38-C39=1.4200       
C39-C38=1.4200       C39-C50=1.3977       C39-C52=1.4321       C40-C27=1.4289       C40-C29=1.3877       C40-C41=1.4170       
C41-C40=1.4170       C41-C52=1.3742       C41-H61=1.0814       C42-C31=1.4049       C42-C43=1.3830       C42-H66=1.0803       
C43-C42=1.3830       C43-C54=1.3804       C43-H78=1.0807       C44-C31=1.4222       C44-C33=1.4087       C44-C45=1.4237       
C45-C44=1.4237       C45-C54=1.4076       C45-C55=1.4022       C46-C33=1.4154       C46-C35=1.4056       C46-C47=1.4300       
C47-C46=1.4300       C47-C55=1.3938       C47-C56=1.4088       C48-C35=1.4156       C48-C37=1.4033       C48-C49=1.4312       
C49-C48=1.4312       C49-C56=1.3861       C49-C57=1.4170       C50-C37=1.4187       C50-C39=1.3977       C50-C51=1.4329       
C51-C50=1.4329       C51-C57=1.3740       C51-C58=1.4340       C52-C39=1.4321       C52-C41=1.3742       C52-C53=1.4342       
C53-C52=1.4342       C53-C58=1.3478       C53-H62=1.0810       C54-C43=1.3804       C54-C45=1.4076       C54-H72=1.0803       
C55-C45=1.4022       C55-C47=1.3938       C55-H73=1.0811       C56-C47=1.4088       C56-C49=1.3861       C56-H74=1.0812       
C57-C49=1.4170       C57-C51=1.3740       C57-H75=1.0814       C58-C51=1.4340       C58-C53=1.3478       C58-H76=1.0810       
H59-C17=1.0803       H60-C29=1.0812       H61-C41=1.0814       H62-C53=1.0810       H63-C6=1.0810        H64-C18=1.0814       
H65-C30=1.0812       H66-C42=1.0803       H67-C1=1.0810        H68-C2=1.0814        H69-C3=1.0812        H70-C4=1.0811        
H71-C5=1.0803        H72-C54=1.0803       H73-C55=1.0811       H74-C56=1.0812       H75-C57=1.0814       H76-C58=1.0810       
H77-C16=1.0807       H78-C43=1.0807       
 C  H  Rav=1.0810 sigma=0.0004  Rmin=1.0803  Rmax=1.0814    20
 C  C  Rav=1.4088 sigma=0.0191  Rmin=1.3478  Rmax=1.4342    77

 selected bond angles (degree)
 --------------------
C8-C1-C6=121.60                H67-C1-C6=120.76               H67-C1-C8=117.64               C10-C2-C8=122.00               
H68-C2-C8=119.69               H68-C2-C10=118.31              C12-C3-C10=121.97              H69-C3-C10=119.40              
H69-C3-C12=118.63              C14-C4-C12=121.86              H70-C4-C12=119.22              H70-C4-C14=118.92              
C16-C5-C14=120.82              H71-C5-C14=118.87              H71-C5-C16=120.31              C7-C6-C1=121.60                
H63-C6-C1=120.76               H63-C6-C7=117.63               C18-C7-C6=122.25               C20-C7-C6=117.93               
C20-C7-C18=119.81              C2-C8-C1=122.26                C9-C8-C1=117.90                C9-C8-C2=119.84                
C20-C9-C8=120.49               C22-C9-C8=119.28               C22-C9-C20=120.23              C3-C10-C2=122.24               
C11-C10-C2=118.42              C11-C10-C3=119.34              

 selected dihedral angles (degree)
 ---------------------------------
C7-C6-C1-C8=  0.00            C7-C6-C1-H67=180.00           H63-C6-C1-C8=180.00           H63-C6-C1-H67=  0.00          
C18-C7-C6-C1=180.00           C18-C7-C6-H63=  0.00          C20-C7-C6-C1=  0.00           C20-C7-C6-H63=180.00          
C2-C8-C1-C6=180.00            C2-C8-C1-H67=  0.00           C9-C8-C1-C6=  0.00            C9-C8-C1-H67=180.00           
C1-C8-C2-C10=180.00           C1-C8-C2-H68=  0.00           C9-C8-C2-C10=  0.00           C9-C8-C2-H68=180.00           
C20-C9-C8-C1=  0.00           C20-C9-C8-C2=180.00           C22-C9-C8-C1=180.00           C22-C9-C8-C2=  0.00           
C3-C10-C2-C8=180.00           C3-C10-C2-H68=  0.00          C11-C10-C2-C8=  0.00          C11-C10-C2-H68=180.00         
C2-C10-C3-C12=180.00          C2-C10-C3-H69=  0.00          C11-C10-C3-C12=  0.00         C11-C10-C3-H69=180.00         
           -------------------------------------------------
          |                Final Singlepoint                |
           -------------------------------------------------

          ...................................................
          :                      SETUP                      :
          :.................................................:
          :  # basis functions                 252          :
          :  # atomic orbitals                 252          :
          :  # shells                          136          :
          :  # electrons                       252          :
          :  max. iterations                   250          :
          :  Hamiltonian                  GFN2-xTB          :
          :  restarted?                      false          :
          :  GBSA solvation                  false          :
          :  PC potential                    false          :
          :  electronic temp.          300.0000000     K    :
          :  accuracy                    1.0000000          :
          :  -> integral cutoff          0.2500000E+02      :
          :  -> integral neglect         0.1000000E-07      :
          :  -> SCF convergence          0.1000000E-05 Eh   :
          :  -> wf. convergence          0.1000000E-03 e    :
          :  Broyden damping             0.4000000          :
          :  net charge                          0          :
          :  unpaired electrons                  0          :
          ...................................................

 iter      E             dE          RMSdq      gap      omega  full diag
   1   -137.3866062 -0.137387E+03  0.478E-05    0.31       0.0  T
   2   -137.3866062  0.573198E-08  0.193E-04    0.31      58.8  T
   3   -137.3866062 -0.348126E-08  0.127E-04    0.31      89.1  T

   *** convergence criteria satisfied after 3 iterations ***

         #    Occupation            Energy/Eh            Energy/eV
      -------------------------------------------------------------
         1        2.0000           -0.6609232             -17.9846
       ...           ...                  ...                  ...
       120        2.0000           -0.3918908             -10.6639
       121        2.0000           -0.3883035             -10.5663
       122        2.0000           -0.3849701             -10.4756
       123        2.0000           -0.3844840             -10.4623
       124        2.0000           -0.3676043             -10.0030
       125        2.0000           -0.3444508              -9.3730
       126        1.9948           -0.3297485              -8.9729 (HOMO)
       127        0.0052           -0.3184256              -8.6648 (LUMO)
       128                         -0.3023083              -8.2262
       129                         -0.2752664              -7.4904
       130                         -0.2530133              -6.8848
       131                         -0.2518169              -6.8523
       ...                                ...                  ...
       252                          0.7777770              21.1644
      -------------------------------------------------------------
                  HL-Gap            0.0113229 Eh            0.3081 eV
             Fermi-level           -0.3240871 Eh           -8.8189 eV

 SCC (total)                   0 d,  0 h,  0 min,  0.162 sec
 SCC setup                      ...        0 min,  0.000 sec (  0.182%)
 Dispersion                     ...        0 min,  0.003 sec (  1.734%)
 classical contributions        ...        0 min,  0.000 sec (  0.075%)
 integral evaluation            ...        0 min,  0.009 sec (  5.706%)
 iterations                     ...        0 min,  0.112 sec ( 69.275%)
 molecular gradient             ...        0 min,  0.032 sec ( 19.648%)
 printout                       ...        0 min,  0.005 sec (  3.363%)

         :::::::::::::::::::::::::::::::::::::::::::::::::::::
         ::                     SUMMARY                     ::
         :::::::::::::::::::::::::::::::::::::::::::::::::::::
         :: total energy            -134.718094730596 Eh    ::
         :: gradient norm              0.000266990193 Eh/a0 ::
         :: HOMO-LUMO gap              0.308112737391 eV    ::
         ::.................................................::
         :: SCC energy              -137.389092558432 Eh    ::
         :: -> isotropic ES            0.002000441256 Eh    ::
         :: -> anisotropic ES          0.007718056547 Eh    ::
         :: -> anisotropic XC          0.058282148160 Eh    ::
         :: -> dispersion             -0.148579480226 Eh    ::
         :: repulsion energy           2.670997827836 Eh    ::
         :: add. restraining           0.000000000000 Eh    ::
         :: total charge               0.000000000760 e     ::
         :::::::::::::::::::::::::::::::::::::::::::::::::::::


Property printout bound to 'properties.out'

optimized geometry written to: xtbopt.coord


           -------------------------------------------------
          | TOTAL ENERGY             -134.718094730596 Eh   |
          | GRADIENT NORM               0.000266990193 Eh/α |
          | HOMO-LUMO GAP               0.308112737391 eV   |
           -------------------------------------------------

------------------------------------------------------------------------
 * finished run on 2024/12/05 at 16:17:37.057     
------------------------------------------------------------------------
 total:
 * wall-time:     0 d,  0 h,  0 min,  1.225 sec
 *  cpu-time:     0 d,  0 h,  0 min,  4.614 sec
 * ratio c/w:     3.767 speedup
 SCF:
 * wall-time:     0 d,  0 h,  0 min,  0.566 sec
 *  cpu-time:     0 d,  0 h,  0 min,  1.891 sec
 * ratio c/w:     3.344 speedup
 ANC optimizer:
 * wall-time:     0 d,  0 h,  0 min,  0.631 sec
 *  cpu-time:     0 d,  0 h,  0 min,  2.514 sec
 * ratio c/w:     3.985 speedup

