78
 energy: -134.718093598199 gnorm: 0.000730003295 xtb: 6.7.1 (edcfbbe)
c            1.22095000024109        0.72522100014321        9.99999000197462
c            0.01451840000287        2.86809000056634       10.00000000197462
c           -1.19252000023548        5.00533000098836       10.00000000197462
c           -2.39655000047323        7.14307000141048       10.00000000197462
c           -3.60051000071096        9.28724000183388        9.99999000197462
c            2.38328000047061        0.04271680000844       10.00000000197462
c            3.64988000072071        0.71567500014132       10.00000000197462
c            1.19141000023526        2.15898000042632       10.00000000197462
c            2.44361000048252        2.85546000056385        9.99999000197462
c           -0.00828224000164        4.28500000084612       10.00000000197462
c            1.23928000024471        4.98635000098461        9.99999000197462
c           -1.20862000023866        6.41409000126654       10.00000000197462
c            0.03689610000729        7.11664000140527        9.99999000197462
c           -2.40429000047476        8.54525000168736       10.00000000197462
c           -1.16570000023018        9.24713000182596       10.00000000197462
c           -3.57681000070628       10.66740000210641        9.99997000197462
c           -2.37794000046955       11.35700000224258       10.00000000197462
c            4.84281000095627        0.03335280000659       10.00000000197462
c            6.09093000120273        0.70417200013905       10.00000000197462
c            3.64879000072050        2.14776000042410        9.99999000197462
c            4.88681000096496        2.84331000056144        9.99999000197462
c            2.44844000048347        4.27421000084399        9.99999000197462
c            3.68507000072766        4.97313000098200        9.99999000197462
c            1.24715000024627        6.40193000126414        9.99999000197462
c            2.48320000049034        7.10129000140224        9.99999000197462
c            0.04793740000947        8.53193000168473       10.00000000197462
c            1.28189000025312        9.22921000182242       10.00000000197462
c           -1.15282000022764       10.66920000210676       10.00000000197462
c            0.08188690001617       11.34260000223973       10.00000000197462
c            7.29811000144110        0.01966450000388       10.00000000197462
c            8.53282000168491        0.69307300013685       10.00000000197462
c            6.09811000120415        2.13304000042120        9.99999000197462
c            7.33206000144780        2.83032000055888       10.00000000197462
c            4.89680000096693        4.26096000084137        9.99999000197462
c            6.13285000121101        4.96032000097947        9.99999000197462
c            3.69493000072961        6.38913000126161        9.99999000197462
c            4.93156000097380        7.08804000139962        9.99999000197462
c            2.49319000049231        8.51894000168217        9.99999000197462
c            3.73121000073677        9.21449000181951       10.00000000197462
c            1.28907000025454       10.65810000210457       10.00000000197462
c            2.53719000050100       11.32890000223703       10.00000000197462
c            9.75794000192682        0.00529256000105       10.00000000197462
c           10.95680000216355        0.69485200013721        9.99999000197462
c            8.54570000168745        2.11512000041766       10.00000000197462
c            9.78429000193203        2.81701000055625       10.00000000197462
c            7.34310000144998        4.24561000083835       10.00000000197462
c            8.58862000169592        4.94817000097708       10.00000000197462
c            6.14072000121256        6.37590000125900        9.99999000197462
c            7.38828000145890        7.07726000139749       10.00000000197462
c            4.93639000097475        8.50679000167977        9.99999000197462
c            6.18859000122201        9.20327000181729       10.00000000197462
c            3.73012000073656       10.64660000210230       10.00000000197462
c            4.99672000098666       11.31950000223517       10.00000000197462
c           10.98050000216823        2.07501000040974       10.00000000197462
c            9.77655000193050        4.21918000083313       10.00000000197462
c            8.57252000169275        6.35692000125525       10.00000000197462
c            7.36548000145440        8.49417000167728       10.00000000197462
c            6.15905000121618       10.63700000210041        9.99999000197462
h           -2.37059000046810       12.43720000245587        9.99999000197462
h            0.08539460001686       12.42370000245321       10.00000000197462
h            2.53868000050129       12.41030000245056       10.00000000197462
h            4.98976000098529       12.40050000244863       10.00000000197462
h            2.39024000047198       -1.03827000020502       10.00000000197462
h            4.84132000095597       -1.04804000020695       10.00000000197462
h            7.29461000144041       -1.06149000020961       10.00000000197462
h            9.75059000192537       -1.07493000021226       10.00000000197462
h            0.27360100005403        0.20428200004034       10.00000000197462
h           -0.92935400018351        2.34003000046207       10.00000000197462
h           -2.13576000042173        4.47660000088396       10.00000000197462
h           -3.34023000065957        6.61524000130626       10.00000000197462
h           -4.54231000089693        8.75807000172939       10.00000000197462
h           11.92230000235420        2.60419000051423       10.00000000197462
h           10.72020000211683        4.74702000093736       10.00000000197462
h            9.51576000187900        6.88565000135965       10.00000000197462
h            8.30935000164078        9.02222000178155       10.00000000197462
h            7.10640000140324       11.15800000220328       10.00000000197462
h           -4.50778000089011       11.21660000221486       10.00000000197462
h           11.88780000234739        0.14566200002876       10.00000000197462
78
 energy: -134.718094732450 gnorm: 0.000267086805 xtb: 6.7.1 (edcfbbe)
c            1.22109159600715        0.72543573856894       10.00000176956299
c            0.01463350154284        2.86828078573525        9.99999176553880
c           -1.19250391443275        5.00548930668806        9.99999155676660
c           -2.39671355900044        7.14322513002197        9.99998920869353
c           -3.60089630152501        9.28736029870811       10.00000323912110
c            2.38338604777579        0.04298195467926       10.00000182160470
c            3.64996600656146        0.71573630968722       10.00000201339106
c            1.19148543161416        2.15912814792129        9.99999754192591
c            2.44368907671814        2.85562058321301       10.00000006081237
c           -0.00827768818673        4.28512000042924        9.99999524578857
c            1.23925538164731        4.98655053807514        9.99999931037147
c           -1.20875800510197        6.41422628516300        9.99999380984309
c            0.03671112597925        7.11689887632998        9.99999888849359
c           -2.40463877350899        8.54543929446062        9.99999814726484
c           -1.16600707950184        9.24746409851994        9.99999870518680
c           -3.57712881073458       10.66759758008851       10.00001073239605
c           -2.37825857985071       11.35715689390793        9.99999855463544
c            4.84281894912975        0.03334145149227        9.99999494197969
c            6.09105551900097        0.70396211567201        9.99999786442559
c            3.64890967869641        2.14783100486594       10.00000288950816
c            4.88695590589886        2.84324771855006       10.00000565864701
c            2.44843621452064        4.27434937992968       10.00000268670963
c            3.68512733520300        4.97312211825575       10.00000672567485
c            1.24700630447122        6.40214940183448       10.00000339959164
c            2.48312325286985        7.10134610169104       10.00000638345991
c            0.04765789280430        8.53223256079605        9.99999963724426
c            1.28171431832636        9.22937827234852        9.99999953937045
c           -1.15307273564804       10.66958512775975        9.99999468794966
c            0.08177146025167       11.34282403361249        9.99998853227617
c            7.29822517349136        0.01943124465479        9.99999246624898
c            8.53306725038602        0.69267046634696        9.99999798559574
c            6.09828430147706        2.13287363815070       10.00000199829769
c            7.33233852336889        2.83002260510244       10.00000152454783
c            4.89687436141259        4.26090611368865       10.00000638894056
c            6.13299164361730        4.96010267416953       10.00000101770755
c            3.69487137261898        6.38913091136509       10.00000636771341
c            4.93156403712420        7.08790204019785       10.00000339098923
c            2.49304333832583        8.51900602254061       10.00000137030097
c            3.73109172977105        9.21441905199328       10.00000107502158
c            1.28894227286316       10.65829073613399        9.99999211152602
c            2.53717858867624       11.32890674510388        9.99999241518332
c            9.75825537295243        0.00510255580297       10.00000013086705
c           10.95712730910154        0.69465793584669       10.00000472141444
c            8.54600147575018        2.11478946593885        9.99999872217033
c            9.78463410450846        2.81681785643857        9.99999657423603
c            7.34328508921759        4.24535322020624       10.00000115909483
c            8.58875388391404        4.94802659506346        9.99999569356775
c            6.14074477386137        6.37570026427879        9.99999912069560
c            7.38827776677793        7.07712943088533        9.99999615887862
c            4.93631191103924        8.50663152717413        9.99999949636783
c            6.18851968698496        9.20312312933111        9.99999693228010
c            3.73003652546127       10.64651990801239        9.99999544263331
c            4.99661596142487       11.31926819256028        9.99999976515308
c           10.98089000223670        2.07489892691116       10.00000036412508
c            9.77670949685729        4.21902773322114        9.99999387927271
c            8.57250228470332        6.35675817414016        9.99999425664688
c            7.36537193785561        8.49396575587142        9.99999332355645
c            6.15891271616353       10.63681218142986       10.00000083641479
h           -2.37176214238655       12.43742152691046        9.99999559448039
h            0.08513829630411       12.42401921923500        9.99999004032835
h            2.53875352818052       12.41031532560952        9.99999282255587
h            4.99013361943765       12.40025170503939        9.99999601206497
h            2.38987267540006       -1.03800013833127        9.99999405873454
h            4.84124373748234       -1.04806509769085        9.99998573298552
h            7.29486404650330       -1.06175712420748        9.99998800682703
h            9.75175560418589       -1.07516283432954        9.99999604034156
h            0.27400947565780        0.20425986596411        9.99998912772679
h           -0.92898099515918        2.34006375528798        9.99998725301868
h           -2.13544197461561        4.47654962687350        9.99998338270321
h           -3.33998958242064        6.61505349978505        9.99998890107786
h           -4.54279933168082        8.75834031107887        9.99999208331265
h           11.92279007035193        2.60392588112884        9.99999647341575
h           10.71998373234131        4.74720926524550        9.99999527920178
h            9.51544014837974        6.88569982382039        9.99998983486134
h            8.30898928908474        9.02217849617948        9.99998900546263
h            7.10598165797581       11.15800512404199        9.99999027220329
h           -4.50766092713031       11.21716050184488        9.99997789560815
h           11.88766484547037        0.14510880244928        9.99999232942846
