      -----------------------------------------------------------      
     |                   =====================                   |     
     |                           x T B                           |     
     |                   =====================                   |     
     |                         S. Grimme                         |     
     |          Mulliken Center for Theoretical Chemistry        |     
     |                    University of Bonn                     |     
      -----------------------------------------------------------      

   * xtb version 6.7.1 (edcfbbe) compiled by 'conda@3ef47c1a292c' on 2024-11-25

   xtb is free software: you can redistribute it and/or modify it under
   the terms of the GNU Lesser General Public License as published by
   the Free Software Foundation, either version 3 of the License, or
   (at your option) any later version.
   
   xtb is distributed in the hope that it will be useful,
   but WITHOUT ANY WARRANTY; without even the implied warranty of
   MERCHANTABILITY or FITNESS FOR A PARTICULAR PURPOSE.  See the
   GNU Lesser General Public License for more details.
   
   Cite this work as:
   * C. Bannwarth, E. Caldeweyher, S. Ehlert, A. Hansen, P. Pracht,
     J. Seibert, S. Spicher, S. Grimme, WIREs Comput. Mol. Sci., 2020, 11,
     e01493. DOI: 10.1002/wcms.1493
   
   for GFN2-xTB:
   * C. Bannwarth, S. Ehlert and S. Grimme., J. Chem. Theory Comput., 2019,
     15, 1652-1671. DOI: 10.1021/acs.jctc.8b01176
   for GFN1-xTB:
   * S. Grimme, C. Bannwarth, P. Shushkov, J. Chem. Theory Comput., 2017,
     13, 1989-2009. DOI: 10.1021/acs.jctc.7b00118
   for GFN0-xTB:
   * P. Pracht, E. Caldeweyher, S. Ehlert, S. Grimme, ChemRxiv, 2019, preprint.
     DOI: 10.26434/chemrxiv.8326202.v1
   for GFN-FF:
   * S. Spicher and S. Grimme, Angew. Chem. Int. Ed., 2020, 59, 15665-15673.
     DOI: 10.1002/anie.202004239
   
   for ALPB and GBSA implicit solvation:
   * S. Ehlert, M. Stahn, S. Spicher, S. Grimme, J. Chem. Theory Comput.,
     2021, 17, 4250-4261. DOI: 10.1021/acs.jctc.1c00471
   
   for ddCOSMO and CPCM-X implicit solvation:
   * M. Stahn, S. Ehlert, S. Grimme, J. Phys. Chem. A,
     2023, XX, XXXX-XXXX. DOI: 10.1021/acs.jpca.3c04382
   
   for DFT-D4:
   * E. Caldeweyher, C. Bannwarth and S. Grimme, J. Chem. Phys., 2017,
     147, 034112. DOI: 10.1063/1.4993215
   * E. Caldeweyher, S. Ehlert, A. Hansen, H. Neugebauer, S. Spicher,
     C. Bannwarth and S. Grimme, J. Chem. Phys., 2019, 150, 154122.
     DOI: 10.1063/1.5090222
   * E. Caldeweyher, J.-M. Mewes, S. Ehlert and S. Grimme, Phys. Chem. Chem. Phys.
     2020, 22, 8499-8512. DOI: 10.1039/D0CP00502A
   
   for sTDA-xTB:
   * S. Grimme and C. Bannwarth, J. Chem. Phys., 2016, 145, 054103.
     DOI: 10.1063/1.4959605
   
   in the mass-spec context:
   * V. Asgeirsson, C. Bauer and S. Grimme, Chem. Sci., 2017, 8, 4879.
     DOI: 10.1039/c7sc00601b
   * J. Koopman and S. Grimme, ACS Omega 2019, 4, 12, 15120-15133.
     DOI: 10.1021/acsomega.9b02011
   
   for metadynamics refer to:
   * S. Grimme, J. Chem. Theory Comput., 2019, 155, 2847-2862
     DOI: 10.1021/acs.jctc.9b00143
   
   for SPH calculations refer to:
   * S. Spicher and S. Grimme, J. Chem. Theory Comput., 2021, 17, 1701-1714
     DOI: 10.1021/acs.jctc.0c01306
   
   for ONIOM refer to:
   * C. Plett, A. Katbashev, S. Ehlert, S. Grimme, M. Bursch,
     Phys. Chem. Chem. Phys., 2023, 25, 17860-17868. DOI: 10.1039/D3CP02178E
   
   for DIPRO refer to:
   * J. Kohn, N. Gildemeister, S. Grimme, D. Fazzi, A. Hansen,
     J. Chem. Phys., 2023, just accepted.
   
   for PTB refer to:
   * S. Grimme, M. Mueller, A. Hansen, J. Chem. Phys., 2023, 158, 124111.
     DOI: 10.1063/5.0137838
   
   with help from (in alphabetical order)
   P. Atkinson, C. Bannwarth, F. Bohle, G. Brandenburg, E. Caldeweyher
   M. Checinski, S. Dohm, S. Ehlert, S. Ehrlich, I. Gerasimov, C. Hölzer
   A. Katbashev, J. Kohn, J. Koopman, C. Lavigne, S. Lehtola, F. März, M. Müller,
   F. Musil, H. Neugebauer, J. Pisarek, C. Plett, P. Pracht, F. Pultar,
   J. Seibert, P. Shushkov, S. Spicher, M. Stahn, M. Steiner, T. Strunk,
   J. Stückrath, T. Rose, and J. Unsleber
   
 * started run on 2024/12/05 at 16:17:50.644     
   ID    Z sym.   atoms
    1    7 n      1
    2    1 h      2-4

           -------------------------------------------------
          |                Calculation Setup                |
           -------------------------------------------------

          program call               : xtb gas --opt
          coordinate file            : gas
          omp threads                :                    16


           -------------------------------------------------
          |                 G F N 2 - x T B                 |
           -------------------------------------------------

        Reference                      10.1021/acs.jctc.8b01176
      * Hamiltonian:
        H0-scaling (s, p, d)           1.850000    2.230000    2.230000
        zeta-weighting                 0.500000
      * Dispersion:
        s8                             2.700000
        a1                             0.520000
        a2                             5.000000
        s9                             5.000000
      * Repulsion:
        kExp                           1.500000    1.000000
        rExp                           1.000000
      * Coulomb:
        alpha                          2.000000
        third order                    shell-resolved
        anisotropic                    true
        a3                             3.000000
        a5                             4.000000
        cn-shift                       1.200000
        cn-exp                         4.000000
        max-rad                        5.000000


          ...................................................
          :                      SETUP                      :
          :.................................................:
          :  # basis functions                   7          :
          :  # atomic orbitals                   7          :
          :  # shells                            5          :
          :  # electrons                         8          :
          :  max. iterations                   250          :
          :  Hamiltonian                  GFN2-xTB          :
          :  restarted?                      false          :
          :  GBSA solvation                  false          :
          :  PC potential                    false          :
          :  electronic temp.          300.0000000     K    :
          :  accuracy                    1.0000000          :
          :  -> integral cutoff          0.2500000E+02      :
          :  -> integral neglect         0.1000000E-07      :
          :  -> SCF convergence          0.1000000E-05 Eh   :
          :  -> wf. convergence          0.1000000E-03 e    :
          :  Broyden damping             0.4000000          :
          :  net charge                          0          :
          :  unpaired electrons                  0          :
          ...................................................

 iter      E             dE          RMSdq      gap      omega  full diag
   1     -4.4682871 -0.446829E+01  0.402E+00   11.65       0.0  T
   2     -4.4820057 -0.137186E-01  0.166E+00   12.21       1.0  T
   3     -4.4824176 -0.411938E-03  0.672E-01   12.30       1.0  T
   4     -4.4824346 -0.170083E-04  0.423E-02   12.24       1.2  T
   5     -4.4824347 -0.569680E-07  0.150E-02   12.23       3.3  T
   6     -4.4824348 -0.188137E-06  0.112E-03   12.23      44.8  T
   7     -4.4824348 -0.327439E-09  0.564E-04   12.24      88.6  T
   8     -4.4824348 -0.141179E-09  0.123E-05   12.23    4059.0  T

   *** convergence criteria satisfied after 8 iterations ***

         #    Occupation            Energy/Eh            Energy/eV
      -------------------------------------------------------------
         1        2.0000           -0.5948332             -16.1862
         2        2.0000           -0.5010707             -13.6348
         3        2.0000           -0.5010700             -13.6348
         4        2.0000           -0.3859601             -10.5025 (HOMO)
         5                          0.0636667               1.7325 (LUMO)
         6                          0.2151485               5.8545
         7                          0.2151543               5.8546
      -------------------------------------------------------------
                  HL-Gap            0.4496268 Eh           12.2350 eV
             Fermi-level           -0.1611467 Eh           -4.3850 eV

 SCC (total)                   0 d,  0 h,  0 min,  0.002 sec
 SCC setup                      ...        0 min,  0.000 sec (  5.523%)
 Dispersion                     ...        0 min,  0.000 sec (  2.118%)
 classical contributions        ...        0 min,  0.000 sec (  2.072%)
 integral evaluation            ...        0 min,  0.000 sec (  8.267%)
 iterations                     ...        0 min,  0.001 sec ( 65.419%)
 molecular gradient             ...        0 min,  0.000 sec ( 11.446%)
 printout                       ...        0 min,  0.000 sec (  4.199%)

         :::::::::::::::::::::::::::::::::::::::::::::::::::::
         ::                     SUMMARY                     ::
         :::::::::::::::::::::::::::::::::::::::::::::::::::::
         :: total energy              -4.426244016686 Eh    ::
         :: gradient norm              0.000146655810 Eh/a0 ::
         :: HOMO-LUMO gap             12.234969271196 eV    ::
         ::.................................................::
         :: SCC energy                -4.482434847097 Eh    ::
         :: -> isotropic ES            0.014479637030 Eh    ::
         :: -> anisotropic ES          0.001835002202 Eh    ::
         :: -> anisotropic XC          0.004464844282 Eh    ::
         :: -> dispersion             -0.000366921670 Eh    ::
         :: repulsion energy           0.056190830411 Eh    ::
         :: add. restraining           0.000000000000 Eh    ::
         :: total charge               0.000000000000 e     ::
         :::::::::::::::::::::::::::::::::::::::::::::::::::::

      ----------------------------------------------------------- 
     |                   =====================                   |
     |                        A N C O P T                        |
     |                   =====================                   |
     |               Approximate Normal Coordinate               |
     |                Rational Function Optimizer                |
      ----------------------------------------------------------- 
      ----------------------------------------------------------- 
     |                   =====================                   |
     |                        A N C O P T                        |
     |                   =====================                   |
     |               Approximate Normal Coordinate               |
     |                Rational Function Optimizer                |
      ----------------------------------------------------------- 

          ...................................................
          :                      SETUP                      :
          :.................................................:
          :   optimization level            normal          :
          :   max. optcycles                   200          :
          :   ANC micro-cycles                  20          :
          :   degrees of freedom                 6          :
          :.................................................:
          :   RF solver                   davidson          :
          :   write xtbopt.log                true          :
          :   linear?                        false          :
          :   energy convergence         0.5000000E-05 Eh   :
          :   grad. convergence          0.1000000E-02 Eh/α :
          :   maxmium RF displ.          1.0000000          :
          :   Hlow (freq-cutoff)         0.1000000E-01      :
          :   Hmax (freq-cutoff)         5.0000000          :
          :   S6 in model hess.         20.0000000          :
          ...................................................

generating ANC from exact Hessian ...
Using Lindh-Hessian (1995)
 Shifting diagonal of input Hessian by    0.0000000000000000     
 Lowest  eigenvalues of input Hessian
    0.000000    0.000000    0.000000    0.000000    0.000000    0.000000
    0.194665    0.210894    0.210896    0.824540    1.345062    1.345074
 Highest eigenvalues
    0.194665    0.210894    0.210896    0.824540    1.345062    1.345074


........................................................................
.............................. CYCLE    1 ..............................
........................................................................

 iter      E             dE          RMSdq      gap      omega  full diag
   1     -4.4824348 -0.448243E+01  0.330E-07   12.23       0.0  T
   2     -4.4824348 -0.355271E-14  0.179E-07   12.23  100000.0  T
   3     -4.4824348 -0.888178E-15  0.772E-08   12.23  100000.0  T
     SCC iter.                  ...        0 min,  0.001 sec
     gradient                   ...        0 min,  0.000 sec
 * total energy  :    -4.4262440 Eh     change       -0.6750156E-13 Eh
   gradient norm :     0.0001467 Eh/α   predicted     0.0000000E+00 (-100.00%)
   displ. norm   :     0.0002700 α      lambda       -0.2423251E-07
   maximum displ.:     0.0002667 α      in ANC's #4, #1, #2, ...

   *** GEOMETRY OPTIMIZATION CONVERGED AFTER 1 ITERATIONS ***

------------------------------------------------------------------------
 total energy gain   :        -0.0000000 Eh       -0.0000 kcal/mol
 total RMSD          :         0.0000000 a0        0.0000 Å
 total power (kW/mol):        -0.0000000 (step)   -0.0000 (real)
------------------------------------------------------------------------

 ANCopt (total)                0 d,  0 h,  0 min,  0.001 sec
 optimizer setup                ...        0 min,  0.000 sec (  4.131%)
 model hessian                  ...        0 min,  0.000 sec (  4.185%)
 ANC generation                 ...        0 min,  0.000 sec (  4.276%)
 coordinate transformation      ...        0 min,  0.000 sec (  0.307%)
 single point calculation       ...        0 min,  0.001 sec ( 72.095%)
 optimization log               ...        0 min,  0.000 sec (  3.312%)
 hessian update                 ...        0 min,  0.000 sec (  0.108%)
 rational function              ...        0 min,  0.000 sec (  5.959%)

================
 final structure:
================
$coord
       -2.60937162791365        1.68714748439428       -0.01163192570348      n
       -4.01041457698390        0.43855252127951       -0.38512996372594      h
       -2.35261453931077        1.72137042451791        1.88423836032661      h
       -1.00348803607247        1.01126236935069       -0.80267817912615      h
$end

 Bond Distances (Angstroems)
 ---------------------------
N1-H2=1.0126         N1-H3=1.0126         N1-H4=1.0126         H2-N1=1.0126         H3-N1=1.0126         H4-N1=1.0126         
 N  H  Rav=1.0126 sigma=0.0000  Rmin=1.0126  Rmax=1.0126     3

 selected bond angles (degree)
 --------------------
H3-N1-H2=107.66                H4-N1-H2=107.66                H4-N1-H3=107.66                

 selected dihedral angles (degree)
 ---------------------------------

           -------------------------------------------------
          |                Final Singlepoint                |
           -------------------------------------------------

          ...................................................
          :                      SETUP                      :
          :.................................................:
          :  # basis functions                   7          :
          :  # atomic orbitals                   7          :
          :  # shells                            5          :
          :  # electrons                         8          :
          :  max. iterations                   250          :
          :  Hamiltonian                  GFN2-xTB          :
          :  restarted?                      false          :
          :  GBSA solvation                  false          :
          :  PC potential                    false          :
          :  electronic temp.          300.0000000     K    :
          :  accuracy                    1.0000000          :
          :  -> integral cutoff          0.2500000E+02      :
          :  -> integral neglect         0.1000000E-07      :
          :  -> SCF convergence          0.1000000E-05 Eh   :
          :  -> wf. convergence          0.1000000E-03 e    :
          :  Broyden damping             0.4000000          :
          :  net charge                          0          :
          :  unpaired electrons                  0          :
          ...................................................

 iter      E             dE          RMSdq      gap      omega  full diag
   1     -4.4824348 -0.448243E+01  0.145E-09   12.23       0.0  T
   2     -4.4824348  0.888178E-15  0.854E-10   12.23  100000.0  T
   3     -4.4824348 -0.266454E-14  0.887E-11   12.23  100000.0  T

   *** convergence criteria satisfied after 3 iterations ***

         #    Occupation            Energy/Eh            Energy/eV
      -------------------------------------------------------------
         1        2.0000           -0.5948331             -16.1862
         2        2.0000           -0.5010707             -13.6348
         3        2.0000           -0.5010700             -13.6348
         4        2.0000           -0.3859600             -10.5025 (HOMO)
         5                          0.0636668               1.7325 (LUMO)
         6                          0.2151486               5.8545
         7                          0.2151544               5.8546
      -------------------------------------------------------------
                  HL-Gap            0.4496268 Eh           12.2350 eV
             Fermi-level           -0.1611466 Eh           -4.3850 eV

 SCC (total)                   0 d,  0 h,  0 min,  0.001 sec
 SCC setup                      ...        0 min,  0.000 sec (  8.076%)
 Dispersion                     ...        0 min,  0.000 sec (  4.267%)
 classical contributions        ...        0 min,  0.000 sec (  2.295%)
 integral evaluation            ...        0 min,  0.000 sec ( 14.615%)
 iterations                     ...        0 min,  0.000 sec ( 32.925%)
 molecular gradient             ...        0 min,  0.000 sec ( 28.941%)
 printout                       ...        0 min,  0.000 sec (  6.664%)

         :::::::::::::::::::::::::::::::::::::::::::::::::::::
         ::                     SUMMARY                     ::
         :::::::::::::::::::::::::::::::::::::::::::::::::::::
         :: total energy              -4.426244016686 Eh    ::
         :: gradient norm              0.000146743955 Eh/a0 ::
         :: HOMO-LUMO gap             12.234967224373 eV    ::
         ::.................................................::
         :: SCC energy                -4.482434847097 Eh    ::
         :: -> isotropic ES            0.014479596888 Eh    ::
         :: -> anisotropic ES          0.001834996573 Eh    ::
         :: -> anisotropic XC          0.004464845696 Eh    ::
         :: -> dispersion             -0.000366921805 Eh    ::
         :: repulsion energy           0.056190830411 Eh    ::
         :: add. restraining           0.000000000000 Eh    ::
         :: total charge              -0.000000000000 e     ::
         :::::::::::::::::::::::::::::::::::::::::::::::::::::


Property printout bound to 'properties.out'

optimized geometry written to: xtbopt.coord


           -------------------------------------------------
          | TOTAL ENERGY               -4.426244016686 Eh   |
          | GRADIENT NORM               0.000146743955 Eh/α |
          | HOMO-LUMO GAP              12.234967224373 eV   |
           -------------------------------------------------

------------------------------------------------------------------------
 * finished run on 2024/12/05 at 16:17:50.658     
------------------------------------------------------------------------
 total:
 * wall-time:     0 d,  0 h,  0 min,  0.014 sec
 *  cpu-time:     0 d,  0 h,  0 min,  0.124 sec
 * ratio c/w:     8.774 speedup
 SCF:
 * wall-time:     0 d,  0 h,  0 min,  0.002 sec
 *  cpu-time:     0 d,  0 h,  0 min,  0.025 sec
 * ratio c/w:    13.039 speedup
 ANC optimizer:
 * wall-time:     0 d,  0 h,  0 min,  0.002 sec
 *  cpu-time:     0 d,  0 h,  0 min,  0.033 sec
 * ratio c/w:    14.153 speedup

