4
 energy: -4.426244016686 gnorm: 0.000146744027 xtb: 6.7.1 (edcfbbe)
n           -1.38082000027266        0.89280000017630       -0.00615535000122
h           -2.12222000041906        0.23207200004582       -0.20380200004024
h           -1.24495000024583        0.91091000017987        0.99709600019689
h           -0.53102300010486        0.53513700010567       -0.42475900008387
