      -----------------------------------------------------------      
     |                   =====================                   |     
     |                           x T B                           |     
     |                   =====================                   |     
     |                         S. Grimme                         |     
     |          Mulliken Center for Theoretical Chemistry        |     
     |                    University of Bonn                     |     
      -----------------------------------------------------------      

   * xtb version 6.7.1 (edcfbbe) compiled by 'conda@3ef47c1a292c' on 2024-11-25

   xtb is free software: you can redistribute it and/or modify it under
   the terms of the GNU Lesser General Public License as published by
   the Free Software Foundation, either version 3 of the License, or
   (at your option) any later version.
   
   xtb is distributed in the hope that it will be useful,
   but WITHOUT ANY WARRANTY; without even the implied warranty of
   MERCHANTABILITY or FITNESS FOR A PARTICULAR PURPOSE.  See the
   GNU Lesser General Public License for more details.
   
   Cite this work as:
   * C. Bannwarth, E. Caldeweyher, S. Ehlert, A. Hansen, P. Pracht,
     J. Seibert, S. Spicher, S. Grimme, WIREs Comput. Mol. Sci., 2020, 11,
     e01493. DOI: 10.1002/wcms.1493
   
   for GFN2-xTB:
   * C. Bannwarth, S. Ehlert and S. Grimme., J. Chem. Theory Comput., 2019,
     15, 1652-1671. DOI: 10.1021/acs.jctc.8b01176
   for GFN1-xTB:
   * S. Grimme, C. Bannwarth, P. Shushkov, J. Chem. Theory Comput., 2017,
     13, 1989-2009. DOI: 10.1021/acs.jctc.7b00118
   for GFN0-xTB:
   * P. Pracht, E. Caldeweyher, S. Ehlert, S. Grimme, ChemRxiv, 2019, preprint.
     DOI: 10.26434/chemrxiv.8326202.v1
   for GFN-FF:
   * S. Spicher and S. Grimme, Angew. Chem. Int. Ed., 2020, 59, 15665-15673.
     DOI: 10.1002/anie.202004239
   
   for ALPB and GBSA implicit solvation:
   * S. Ehlert, M. Stahn, S. Spicher, S. Grimme, J. Chem. Theory Comput.,
     2021, 17, 4250-4261. DOI: 10.1021/acs.jctc.1c00471
   
   for ddCOSMO and CPCM-X implicit solvation:
   * M. Stahn, S. Ehlert, S. Grimme, J. Phys. Chem. A,
     2023, XX, XXXX-XXXX. DOI: 10.1021/acs.jpca.3c04382
   
   for DFT-D4:
   * E. Caldeweyher, C. Bannwarth and S. Grimme, J. Chem. Phys., 2017,
     147, 034112. DOI: 10.1063/1.4993215
   * E. Caldeweyher, S. Ehlert, A. Hansen, H. Neugebauer, S. Spicher,
     C. Bannwarth and S. Grimme, J. Chem. Phys., 2019, 150, 154122.
     DOI: 10.1063/1.5090222
   * E. Caldeweyher, J.-M. Mewes, S. Ehlert and S. Grimme, Phys. Chem. Chem. Phys.
     2020, 22, 8499-8512. DOI: 10.1039/D0CP00502A
   
   for sTDA-xTB:
   * S. Grimme and C. Bannwarth, J. Chem. Phys., 2016, 145, 054103.
     DOI: 10.1063/1.4959605
   
   in the mass-spec context:
   * V. Asgeirsson, C. Bauer and S. Grimme, Chem. Sci., 2017, 8, 4879.
     DOI: 10.1039/c7sc00601b
   * J. Koopman and S. Grimme, ACS Omega 2019, 4, 12, 15120-15133.
     DOI: 10.1021/acsomega.9b02011
   
   for metadynamics refer to:
   * S. Grimme, J. Chem. Theory Comput., 2019, 155, 2847-2862
     DOI: 10.1021/acs.jctc.9b00143
   
   for SPH calculations refer to:
   * S. Spicher and S. Grimme, J. Chem. Theory Comput., 2021, 17, 1701-1714
     DOI: 10.1021/acs.jctc.0c01306
   
   for ONIOM refer to:
   * C. Plett, A. Katbashev, S. Ehlert, S. Grimme, M. Bursch,
     Phys. Chem. Chem. Phys., 2023, 25, 17860-17868. DOI: 10.1039/D3CP02178E
   
   for DIPRO refer to:
   * J. Kohn, N. Gildemeister, S. Grimme, D. Fazzi, A. Hansen,
     J. Chem. Phys., 2023, just accepted.
   
   for PTB refer to:
   * S. Grimme, M. Mueller, A. Hansen, J. Chem. Phys., 2023, 158, 124111.
     DOI: 10.1063/5.0137838
   
   with help from (in alphabetical order)
   P. Atkinson, C. Bannwarth, F. Bohle, G. Brandenburg, E. Caldeweyher
   M. Checinski, S. Dohm, S. Ehlert, S. Ehrlich, I. Gerasimov, C. Hölzer
   A. Katbashev, J. Kohn, J. Koopman, C. Lavigne, S. Lehtola, F. März, M. Müller,
   F. Musil, H. Neugebauer, J. Pisarek, C. Plett, P. Pracht, F. Pultar,
   J. Seibert, P. Shushkov, S. Spicher, M. Stahn, M. Steiner, T. Strunk,
   J. Stückrath, T. Rose, and J. Unsleber
   
 * started run on 2025/01/15 at 17:23:16.665     
   ID    Z sym.   atoms
    1    8 o      1
    2    1 h      2, 3

           -------------------------------------------------
          |                Calculation Setup                |
           -------------------------------------------------

          program call               : xtb gas --opt
          coordinate file            : gas
          omp threads                :                    16


           -------------------------------------------------
          |                 G F N 2 - x T B                 |
           -------------------------------------------------

        Reference                      10.1021/acs.jctc.8b01176
      * Hamiltonian:
        H0-scaling (s, p, d)           1.850000    2.230000    2.230000
        zeta-weighting                 0.500000
      * Dispersion:
        s8                             2.700000
        a1                             0.520000
        a2                             5.000000
        s9                             5.000000
      * Repulsion:
        kExp                           1.500000    1.000000
        rExp                           1.000000
      * Coulomb:
        alpha                          2.000000
        third order                    shell-resolved
        anisotropic                    true
        a3                             3.000000
        a5                             4.000000
        cn-shift                       1.200000
        cn-exp                         4.000000
        max-rad                        5.000000


          ...................................................
          :                      SETUP                      :
          :.................................................:
          :  # basis functions                   6          :
          :  # atomic orbitals                   6          :
          :  # shells                            4          :
          :  # electrons                         8          :
          :  max. iterations                   250          :
          :  Hamiltonian                  GFN2-xTB          :
          :  restarted?                      false          :
          :  GBSA solvation                  false          :
          :  PC potential                    false          :
          :  electronic temp.          300.0000000     K    :
          :  accuracy                    1.0000000          :
          :  -> integral cutoff          0.2500000E+02      :
          :  -> integral neglect         0.1000000E-07      :
          :  -> SCF convergence          0.1000000E-05 Eh   :
          :  -> wf. convergence          0.1000000E-03 e    :
          :  Broyden damping             0.4000000          :
          :  net charge                          0          :
          :  unpaired electrons                  0          :
          ...................................................

 iter      E             dE          RMSdq      gap      omega  full diag
   1     -5.1034356 -0.510344E+01  0.421E+00   14.76       0.0  T
   2     -5.1046536 -0.121804E-02  0.242E+00   14.49       1.0  T
   3     -5.1048837 -0.230114E-03  0.373E-01   14.27       1.0  T
   4     -5.1049423 -0.585657E-04  0.859E-02   14.42       1.0  T
   5     -5.1049460 -0.373277E-05  0.499E-02   14.38       1.2  T
   6     -5.1049474 -0.137271E-05  0.104E-03   14.39      55.3  T
   7     -5.1049474 -0.264222E-09  0.820E-04   14.39      70.4  T
   8     -5.1049474 -0.395287E-09  0.205E-05   14.39    2814.6  T

   *** convergence criteria satisfied after 8 iterations ***

         #    Occupation            Energy/Eh            Energy/eV
      -------------------------------------------------------------
         1        2.0000           -0.6800972             -18.5064
         2        2.0000           -0.5683190             -15.4647
         3        2.0000           -0.5108666             -13.9014
         4        2.0000           -0.4463895             -12.1469 (HOMO)
         5                          0.0825913               2.2474 (LUMO)
         6                          0.2517257               6.8498
      -------------------------------------------------------------
                  HL-Gap            0.5289808 Eh           14.3943 eV
             Fermi-level           -0.1818991 Eh           -4.9497 eV

 SCC (total)                   0 d,  0 h,  0 min,  0.002 sec
 SCC setup                      ...        0 min,  0.000 sec ( 10.994%)
 Dispersion                     ...        0 min,  0.000 sec (  1.734%)
 classical contributions        ...        0 min,  0.000 sec (  1.594%)
 integral evaluation            ...        0 min,  0.000 sec (  8.217%)
 iterations                     ...        0 min,  0.001 sec ( 60.895%)
 molecular gradient             ...        0 min,  0.000 sec ( 11.773%)
 printout                       ...        0 min,  0.000 sec (  3.858%)

         :::::::::::::::::::::::::::::::::::::::::::::::::::::
         ::                     SUMMARY                     ::
         :::::::::::::::::::::::::::::::::::::::::::::::::::::
         :: total energy              -5.070544428104 Eh    ::
         :: gradient norm              0.000179434496 Eh/a0 ::
         :: HOMO-LUMO gap             14.394299552364 eV    ::
         ::.................................................::
         :: SCC energy                -5.104947407826 Eh    ::
         :: -> isotropic ES            0.031459166448 Eh    ::
         :: -> anisotropic ES          0.000394689980 Eh    ::
         :: -> anisotropic XC         -0.000882918290 Eh    ::
         :: -> dispersion             -0.000141081823 Eh    ::
         :: repulsion energy           0.034402979722 Eh    ::
         :: add. restraining           0.000000000000 Eh    ::
         :: total charge               0.000000000000 e     ::
         :::::::::::::::::::::::::::::::::::::::::::::::::::::

      ----------------------------------------------------------- 
     |                   =====================                   |
     |                        A N C O P T                        |
     |                   =====================                   |
     |               Approximate Normal Coordinate               |
     |                Rational Function Optimizer                |
      ----------------------------------------------------------- 
      ----------------------------------------------------------- 
     |                   =====================                   |
     |                        A N C O P T                        |
     |                   =====================                   |
     |               Approximate Normal Coordinate               |
     |                Rational Function Optimizer                |
      ----------------------------------------------------------- 

          ...................................................
          :                      SETUP                      :
          :.................................................:
          :   optimization level            normal          :
          :   max. optcycles                   200          :
          :   ANC micro-cycles                  20          :
          :   degrees of freedom                 3          :
          :.................................................:
          :   RF solver                   davidson          :
          :   write xtbopt.log                true          :
          :   linear?                        false          :
          :   energy convergence         0.5000000E-05 Eh   :
          :   grad. convergence          0.1000000E-02 Eh/α :
          :   maxmium RF displ.          1.0000000          :
          :   Hlow (freq-cutoff)         0.1000000E-01      :
          :   Hmax (freq-cutoff)         5.0000000          :
          :   S6 in model hess.         20.0000000          :
          ...................................................

generating ANC from exact Hessian ...
Using Lindh-Hessian (1995)
 Shifting diagonal of input Hessian by    0.0000000000000000     
 Lowest  eigenvalues of input Hessian
    0.000000    0.000000    0.000000    0.000000    0.000000    0.000000
    0.303365    1.207261    1.432454
 Highest eigenvalues
    0.000000    0.000000    0.000000    0.303365    1.207261    1.432454


........................................................................
.............................. CYCLE    1 ..............................
........................................................................

 iter      E             dE          RMSdq      gap      omega  full diag
   1     -5.1049474 -0.510495E+01  0.236E-08   14.39       0.0  T
   2     -5.1049474 -0.444089E-14  0.139E-08   14.39  100000.0  T
   3     -5.1049474  0.177636E-14  0.274E-09   14.39  100000.0  T
     SCC iter.                  ...        0 min,  0.000 sec
     gradient                   ...        0 min,  0.000 sec
 * total energy  :    -5.0705444 Eh     change       -0.2362555E-12 Eh
   gradient norm :     0.0001793 Eh/α   predicted     0.0000000E+00 (-100.00%)
   displ. norm   :     0.0002838 α      lambda       -0.2900780E-07
   maximum displ.:     0.0002180 α      in ANC's #2, #1, #3, ...

   *** GEOMETRY OPTIMIZATION CONVERGED AFTER 1 ITERATIONS ***

------------------------------------------------------------------------
 total energy gain   :        -0.0000000 Eh       -0.0000 kcal/mol
 total RMSD          :         0.0000000 a0        0.0000 Å
 total power (kW/mol):        -0.0000000 (step)   -0.0000 (real)
------------------------------------------------------------------------

 ANCopt (total)                0 d,  0 h,  0 min,  0.001 sec
 optimizer setup                ...        0 min,  0.000 sec (  4.627%)
 model hessian                  ...        0 min,  0.000 sec (  2.363%)
 ANC generation                 ...        0 min,  0.000 sec (  3.512%)
 coordinate transformation      ...        0 min,  0.000 sec (  0.321%)
 single point calculation       ...        0 min,  0.001 sec ( 72.945%)
 optimization log               ...        0 min,  0.000 sec (  3.501%)
 hessian update                 ...        0 min,  0.000 sec (  0.121%)
 rational function              ...        0 min,  0.000 sec (  6.450%)

================
 final structure:
================
$coord
       -2.58353907178499        1.28375709712252       -0.00504592780170      o
       -4.12801223374225        1.50575078393002       -0.92715254925335      h
       -2.58021315380500        2.50114701273527        1.33767665264696      h
$end

 Bond Distances (Angstroems)
 ---------------------------
O1-H2=0.9591         O1-H3=0.9591         H2-O1=0.9591         H3-O1=0.9591         
 O  H  Rav=0.9591 sigma=0.0000  Rmin=0.9591  Rmax=0.9591     2

 selected bond angles (degree)
 --------------------
H3-O1-H2=107.23                

 selected dihedral angles (degree)
 ---------------------------------

           -------------------------------------------------
          |                Final Singlepoint                |
           -------------------------------------------------

          ...................................................
          :                      SETUP                      :
          :.................................................:
          :  # basis functions                   6          :
          :  # atomic orbitals                   6          :
          :  # shells                            4          :
          :  # electrons                         8          :
          :  max. iterations                   250          :
          :  Hamiltonian                  GFN2-xTB          :
          :  restarted?                      false          :
          :  GBSA solvation                  false          :
          :  PC potential                    false          :
          :  electronic temp.          300.0000000     K    :
          :  accuracy                    1.0000000          :
          :  -> integral cutoff          0.2500000E+02      :
          :  -> integral neglect         0.1000000E-07      :
          :  -> SCF convergence          0.1000000E-05 Eh   :
          :  -> wf. convergence          0.1000000E-03 e    :
          :  Broyden damping             0.4000000          :
          :  net charge                          0          :
          :  unpaired electrons                  0          :
          ...................................................

 iter      E             dE          RMSdq      gap      omega  full diag
   1     -5.1049474 -0.510495E+01  0.662E-10   14.39       0.0  T
   2     -5.1049474 -0.266454E-14  0.421E-10   14.39  100000.0  T
   3     -5.1049474  0.532907E-14  0.275E-11   14.39  100000.0  T

   *** convergence criteria satisfied after 3 iterations ***

         #    Occupation            Energy/Eh            Energy/eV
      -------------------------------------------------------------
         1        2.0000           -0.6800973             -18.5064
         2        2.0000           -0.5683191             -15.4648
         3        2.0000           -0.5108669             -13.9014
         4        2.0000           -0.4463898             -12.1469 (HOMO)
         5                          0.0825912               2.2474 (LUMO)
         6                          0.2517256               6.8498
      -------------------------------------------------------------
                  HL-Gap            0.5289810 Eh           14.3943 eV
             Fermi-level           -0.1818993 Eh           -4.9497 eV

 SCC (total)                   0 d,  0 h,  0 min,  0.001 sec
 SCC setup                      ...        0 min,  0.000 sec (  7.478%)
 Dispersion                     ...        0 min,  0.000 sec (  3.599%)
 classical contributions        ...        0 min,  0.000 sec (  2.071%)
 integral evaluation            ...        0 min,  0.000 sec ( 15.669%)
 iterations                     ...        0 min,  0.000 sec ( 35.277%)
 molecular gradient             ...        0 min,  0.000 sec ( 27.973%)
 printout                       ...        0 min,  0.000 sec (  5.756%)

         :::::::::::::::::::::::::::::::::::::::::::::::::::::
         ::                     SUMMARY                     ::
         :::::::::::::::::::::::::::::::::::::::::::::::::::::
         :: total energy              -5.070544428105 Eh    ::
         :: gradient norm              0.000179252637 Eh/a0 ::
         :: HOMO-LUMO gap             14.394306713693 eV    ::
         ::.................................................::
         :: SCC energy                -5.104947407827 Eh    ::
         :: -> isotropic ES            0.031459260397 Eh    ::
         :: -> anisotropic ES          0.000394698605 Eh    ::
         :: -> anisotropic XC         -0.000882914682 Eh    ::
         :: -> dispersion             -0.000141081738 Eh    ::
         :: repulsion energy           0.034402979722 Eh    ::
         :: add. restraining           0.000000000000 Eh    ::
         :: total charge               0.000000000000 e     ::
         :::::::::::::::::::::::::::::::::::::::::::::::::::::


Property printout bound to 'properties.out'

optimized geometry written to: xtbopt.coord


           -------------------------------------------------
          | TOTAL ENERGY               -5.070544428105 Eh   |
          | GRADIENT NORM               0.000179252637 Eh/α |
          | HOMO-LUMO GAP              14.394306713693 eV   |
           -------------------------------------------------

------------------------------------------------------------------------
 * finished run on 2025/01/15 at 17:23:16.677     
------------------------------------------------------------------------
 total:
 * wall-time:     0 d,  0 h,  0 min,  0.012 sec
 *  cpu-time:     0 d,  0 h,  0 min,  0.118 sec
 * ratio c/w:    10.105 speedup
 SCF:
 * wall-time:     0 d,  0 h,  0 min,  0.002 sec
 *  cpu-time:     0 d,  0 h,  0 min,  0.029 sec
 * ratio c/w:    16.075 speedup
 ANC optimizer:
 * wall-time:     0 d,  0 h,  0 min,  0.002 sec
 *  cpu-time:     0 d,  0 h,  0 min,  0.032 sec
 * ratio c/w:    14.387 speedup

