3
 energy: -5.070544428105 gnorm: 0.000179252620 xtb: 6.7.1 (edcfbbe)
o           -1.36715000026996        0.67933500013414       -0.00267019000053
h           -2.18445000043135        0.79680900015734       -0.49062800009688
h           -1.36539000026961        1.32355000026135        0.70786800013978
