      -----------------------------------------------------------      
     |                   =====================                   |     
     |                           x T B                           |     
     |                   =====================                   |     
     |                         S. Grimme                         |     
     |          Mulliken Center for Theoretical Chemistry        |     
     |                    University of Bonn                     |     
      -----------------------------------------------------------      

   * xtb version 6.5.1 (fef0646) compiled by 'conda@b96dff2e9fd6' on 2023-01-04

   xtb is free software: you can redistribute it and/or modify it under
   the terms of the GNU Lesser General Public License as published by
   the Free Software Foundation, either version 3 of the License, or
   (at your option) any later version.
   
   xtb is distributed in the hope that it will be useful,
   but WITHOUT ANY WARRANTY; without even the implied warranty of
   MERCHANTABILITY or FITNESS FOR A PARTICULAR PURPOSE.  See the
   GNU Lesser General Public License for more details.
   
   Cite this work as:
   * C. Bannwarth, E. Caldeweyher, S. Ehlert, A. Hansen, P. Pracht,
     J. Seibert, S. Spicher, S. Grimme, WIREs Comput. Mol. Sci., 2020, 11,
     e01493. DOI: 10.1002/wcms.1493
   
   for GFN2-xTB:
   * C. Bannwarth, S. Ehlert and S. Grimme., J. Chem. Theory Comput., 2019,
     15, 1652-1671. DOI: 10.1021/acs.jctc.8b01176
   for GFN1-xTB:
   * S. Grimme, C. Bannwarth, P. Shushkov, J. Chem. Theory Comput., 2017,
     13, 1989-2009. DOI: 10.1021/acs.jctc.7b00118
   for GFN0-xTB:
   * P. Pracht, E. Caldeweyher, S. Ehlert, S. Grimme, ChemRxiv, 2019, preprint.
     DOI: 10.26434/chemrxiv.8326202.v1
   for GFN-FF:
   * S. Spicher and S. Grimme, Angew. Chem. Int. Ed., 2020, 59, 15665-15673.
     DOI: 10.1002/anie.202004239
   
   for ALPB and GBSA implicit solvation:
   * S. Ehlert, M. Stahn, S. Spicher, S. Grimme, J. Chem. Theory Comput.,
     2021, 17, 4250-4261. DOI: 10.1021/acs.jctc.1c00471
   
   for DFT-D4:
   * E. Caldeweyher, C. Bannwarth and S. Grimme, J. Chem. Phys., 2017,
     147, 034112. DOI: 10.1063/1.4993215
   * E. Caldeweyher, S. Ehlert, A. Hansen, H. Neugebauer, S. Spicher,
     C. Bannwarth and S. Grimme, J. Chem. Phys., 2019, 150, 154122.
     DOI: 10.1063/1.5090222
   * E. Caldeweyher, J.-M. Mewes, S. Ehlert and S. Grimme, Phys. Chem. Chem. Phys.
     2020, 22, 8499-8512. DOI: 10.1039/D0CP00502A
   
   for sTDA-xTB:
   * S. Grimme and C. Bannwarth, J. Chem. Phys., 2016, 145, 054103.
     DOI: 10.1063/1.4959605
   
   in the mass-spec context:
   * V. Asgeirsson, C. Bauer and S. Grimme, Chem. Sci., 2017, 8, 4879.
     DOI: 10.1039/c7sc00601b
   * J. Koopman and S. Grimme, ACS Omega 2019, 4, 12, 15120-15133.
     DOI: 10.1021/acsomega.9b02011
   
   for metadynamics refer to:
   * S. Grimme, J. Chem. Theory Comput., 2019, 155, 2847-2862
     DOI: 10.1021/acs.jctc.9b00143
   
   for SPH calculations refer to:
   * S. Spicher and S. Grimme, J. Chem. Theory Comput., 2021, 17, 1701-1714
     DOI: 10.1021/acs.jctc.0c01306
   
   with help from (in alphabetical order)
   P. Atkinson, C. Bannwarth, F. Bohle, G. Brandenburg, E. Caldeweyher
   M. Checinski, S. Dohm, S. Ehlert, S. Ehrlich, I. Gerasimov, C. Hölzer
   A. Katbashev, J. Koopman, C. Lavigne, S. Lehtola, F. März, M. Müller,
   F. Musil, H. Neugebauer, J. Pisarek, C. Plett, P. Pracht, F. Pultar,
   J. Seibert, P. Shushkov, S. Spicher, M. Stahn, M. Steiner, T. Strunk,
   J. Stückrath, T. Rose, and J. Unsleber
   
 * started run on 2024/11/21 at 16:37:25.101     

           -------------------------------------------------
          |                Calculation Setup                |
           -------------------------------------------------

          program call               : xtb defect
          coordinate file            : defect
          omp threads                :                    24

   ID    Z sym.   atoms
    1    6 c      1-22, 24-58
    2    1 h      23, 59-79, 81
    3    8 o      80

           -------------------------------------------------
          |                 G F N 2 - x T B                 |
           -------------------------------------------------

        Reference                      10.1021/acs.jctc.8b01176
      * Hamiltonian:
        H0-scaling (s, p, d)           1.850000    2.230000    2.230000
        zeta-weighting                 0.500000
      * Dispersion:
        s8                             2.700000
        a1                             0.520000
        a2                             5.000000
        s9                             5.000000
      * Repulsion:
        kExp                           1.500000    1.000000
        rExp                           1.000000
      * Coulomb:
        alpha                          2.000000
        third order                    shell-resolved
        anisotropic                    true
        a3                             3.000000
        a5                             4.000000
        cn-shift                       1.200000
        cn-exp                         4.000000
        max-rad                        5.000000


          ...................................................
          :                      SETUP                      :
          :.................................................:
          :  # basis functions                 255          :
          :  # atomic orbitals                 255          :
          :  # shells                          139          :
          :  # electrons                       257          :
          :  max. iterations                   250          :
          :  Hamiltonian                  GFN2-xTB          :
          :  restarted?                      false          :
          :  GBSA solvation                  false          :
          :  PC potential                    false          :
          :  electronic temp.          300.0000000     K    :
          :  accuracy                    1.0000000          :
          :  -> integral cutoff          0.2500000E+02      :
          :  -> integral neglect         0.1000000E-07      :
          :  -> SCF convergence          0.1000000E-05 Eh   :
          :  -> wf. convergence          0.1000000E-03 e    :
          :  Broyden damping             0.4000000          :
          ...................................................

 iter      E             dE          RMSdq      gap      omega  full diag
   1   -140.5229825 -0.140523E+03  0.490E+00    0.29       0.0  T
   2   -140.3309384  0.192044E+00  0.304E+00    0.31       1.0  T
   3   -138.4974689  0.183347E+01  0.345E+00    0.33       1.0  T
   4   -140.2433760 -0.174591E+01  0.142E+00    0.75       1.0  T
   5   -140.3319686 -0.885925E-01  0.144E+00    0.85       1.0  T
   6   -140.5175457 -0.185577E+00  0.855E-01    0.38       1.0  T
   7   -140.5583463 -0.408006E-01  0.612E-01    0.31       1.0  T
   8   -140.5859876 -0.276413E-01  0.418E-01    0.32       1.0  T
   9   -140.5945298 -0.854226E-02  0.256E-01    0.21       1.0  T
  10   -140.6005371 -0.600727E-02  0.224E-01    0.27       1.0  T
  11   -140.6065679 -0.603081E-02  0.391E-02    0.25       1.0  T
  12   -140.6062022  0.365693E-03  0.568E-02    0.24       1.0  T
  13   -140.6066674 -0.465158E-03  0.105E-02    0.25       1.1  T
  14   -140.6066715 -0.410262E-05  0.744E-03    0.25       1.5  T
  15   -140.6066785 -0.704766E-05  0.256E-03    0.25       4.3  T
  16   -140.6066783  0.263994E-06  0.235E-03    0.25       4.7  T
  17   -140.6066790 -0.735806E-06  0.656E-04    0.25      16.9  T
  18   -140.6066790 -0.201246E-07  0.496E-04    0.25      22.4  T

   *** convergence criteria satisfied after 18 iterations ***

         #    Occupation            Energy/Eh            Energy/eV
      -------------------------------------------------------------
         1        2.0000           -0.6817212             -18.5506
       ...           ...                  ...                  ...
       123        2.0000           -0.3856454             -10.4939
       124        2.0000           -0.3763586             -10.2412
       125        2.0000           -0.3701196             -10.0715
       126        2.0000           -0.3642226              -9.9110
       127        2.0000           -0.3519808              -9.5779
       128        1.8283           -0.3339977              -9.0885
       129        1.1637           -0.3310036              -9.0071 (HOMO)
       130        0.0080           -0.3217979              -8.7566 (LUMO)
       131                         -0.2924235              -7.9572
       132                         -0.2722324              -7.4078
       133                         -0.2667391              -7.2583
       134                         -0.2512325              -6.8364
       ...                                ...                  ...
       255                          0.7508146              20.4307
      -------------------------------------------------------------
                  HL-Gap            0.0092057 Eh            0.2505 eV
             Fermi-level           -0.3294406 Eh           -8.9645 eV

 SCC (total)                   0 d,  0 h,  0 min,  0.784 sec
 SCC setup                      ...        0 min,  0.003 sec (  0.335%)
 Dispersion                     ...        0 min,  0.017 sec (  2.135%)
 classical contributions        ...        0 min,  0.003 sec (  0.409%)
 integral evaluation            ...        0 min,  0.016 sec (  1.981%)
 iterations                     ...        0 min,  0.722 sec ( 92.113%)
 molecular gradient             ...        0 min,  0.023 sec (  2.890%)
 printout                       ...        0 min,  0.001 sec (  0.128%)

         :::::::::::::::::::::::::::::::::::::::::::::::::::::
         ::                     SUMMARY                     ::
         :::::::::::::::::::::::::::::::::::::::::::::::::::::
         :: total energy            -137.990664301447 Eh    ::
         :: gradient norm              0.000161968413 Eh/a0 ::
         :: HOMO-LUMO gap              0.250499310714 eV    ::
         ::.................................................::
         :: SCC energy              -140.606679025235 Eh    ::
         :: -> isotropic ES            0.035714043053 Eh    ::
         :: -> anisotropic ES          0.004714386646 Eh    ::
         :: -> anisotropic XC          0.061530392606 Eh    ::
         :: -> dispersion             -0.149646178426 Eh    ::
         :: repulsion energy           2.617610757294 Eh    ::
         :: add. restraining           0.000000000000 Eh    ::
         :: total charge              -0.000000000000 e     ::
         :::::::::::::::::::::::::::::::::::::::::::::::::::::


Property printout bound to 'properties.out'

           -------------------------------------------------
          | TOTAL ENERGY             -137.990664301447 Eh   |
          | GRADIENT NORM               0.000161968413 Eh/α |
          | HOMO-LUMO GAP               0.250499310714 eV   |
           -------------------------------------------------

------------------------------------------------------------------------
 * finished run on 2024/11/21 at 16:37:25.933     
------------------------------------------------------------------------
 total:
 * wall-time:     0 d,  0 h,  0 min,  0.832 sec
 *  cpu-time:     0 d,  0 h,  0 min, 19.886 sec
 * ratio c/w:    23.887 speedup
 SCF:
 * wall-time:     0 d,  0 h,  0 min,  0.784 sec
 *  cpu-time:     0 d,  0 h,  0 min, 18.796 sec
 * ratio c/w:    23.963 speedup

