      -----------------------------------------------------------      
     |                   =====================                   |     
     |                           x T B                           |     
     |                   =====================                   |     
     |                         S. Grimme                         |     
     |          Mulliken Center for Theoretical Chemistry        |     
     |                    University of Bonn                     |     
      -----------------------------------------------------------      

   * xtb version 6.5.1 (fef0646) compiled by 'conda@b96dff2e9fd6' on 2023-01-04

   xtb is free software: you can redistribute it and/or modify it under
   the terms of the GNU Lesser General Public License as published by
   the Free Software Foundation, either version 3 of the License, or
   (at your option) any later version.
   
   xtb is distributed in the hope that it will be useful,
   but WITHOUT ANY WARRANTY; without even the implied warranty of
   MERCHANTABILITY or FITNESS FOR A PARTICULAR PURPOSE.  See the
   GNU Lesser General Public License for more details.
   
   Cite this work as:
   * C. Bannwarth, E. Caldeweyher, S. Ehlert, A. Hansen, P. Pracht,
     J. Seibert, S. Spicher, S. Grimme, WIREs Comput. Mol. Sci., 2020, 11,
     e01493. DOI: 10.1002/wcms.1493
   
   for GFN2-xTB:
   * C. Bannwarth, S. Ehlert and S. Grimme., J. Chem. Theory Comput., 2019,
     15, 1652-1671. DOI: 10.1021/acs.jctc.8b01176
   for GFN1-xTB:
   * S. Grimme, C. Bannwarth, P. Shushkov, J. Chem. Theory Comput., 2017,
     13, 1989-2009. DOI: 10.1021/acs.jctc.7b00118
   for GFN0-xTB:
   * P. Pracht, E. Caldeweyher, S. Ehlert, S. Grimme, ChemRxiv, 2019, preprint.
     DOI: 10.26434/chemrxiv.8326202.v1
   for GFN-FF:
   * S. Spicher and S. Grimme, Angew. Chem. Int. Ed., 2020, 59, 15665-15673.
     DOI: 10.1002/anie.202004239
   
   for ALPB and GBSA implicit solvation:
   * S. Ehlert, M. Stahn, S. Spicher, S. Grimme, J. Chem. Theory Comput.,
     2021, 17, 4250-4261. DOI: 10.1021/acs.jctc.1c00471
   
   for DFT-D4:
   * E. Caldeweyher, C. Bannwarth and S. Grimme, J. Chem. Phys., 2017,
     147, 034112. DOI: 10.1063/1.4993215
   * E. Caldeweyher, S. Ehlert, A. Hansen, H. Neugebauer, S. Spicher,
     C. Bannwarth and S. Grimme, J. Chem. Phys., 2019, 150, 154122.
     DOI: 10.1063/1.5090222
   * E. Caldeweyher, J.-M. Mewes, S. Ehlert and S. Grimme, Phys. Chem. Chem. Phys.
     2020, 22, 8499-8512. DOI: 10.1039/D0CP00502A
   
   for sTDA-xTB:
   * S. Grimme and C. Bannwarth, J. Chem. Phys., 2016, 145, 054103.
     DOI: 10.1063/1.4959605
   
   in the mass-spec context:
   * V. Asgeirsson, C. Bauer and S. Grimme, Chem. Sci., 2017, 8, 4879.
     DOI: 10.1039/c7sc00601b
   * J. Koopman and S. Grimme, ACS Omega 2019, 4, 12, 15120-15133.
     DOI: 10.1021/acsomega.9b02011
   
   for metadynamics refer to:
   * S. Grimme, J. Chem. Theory Comput., 2019, 155, 2847-2862
     DOI: 10.1021/acs.jctc.9b00143
   
   for SPH calculations refer to:
   * S. Spicher and S. Grimme, J. Chem. Theory Comput., 2021, 17, 1701-1714
     DOI: 10.1021/acs.jctc.0c01306
   
   with help from (in alphabetical order)
   P. Atkinson, C. Bannwarth, F. Bohle, G. Brandenburg, E. Caldeweyher
   M. Checinski, S. Dohm, S. Ehlert, S. Ehrlich, I. Gerasimov, C. Hölzer
   A. Katbashev, J. Koopman, C. Lavigne, S. Lehtola, F. März, M. Müller,
   F. Musil, H. Neugebauer, J. Pisarek, C. Plett, P. Pracht, F. Pultar,
   J. Seibert, P. Shushkov, S. Spicher, M. Stahn, M. Steiner, T. Strunk,
   J. Stückrath, T. Rose, and J. Unsleber
   
 * started run on 2024/11/21 at 16:28:26.905     

           -------------------------------------------------
          |                Calculation Setup                |
           -------------------------------------------------

          program call               : xtb defect
          coordinate file            : defect
          omp threads                :                    24

   ID    Z sym.   atoms
    1    6 c      1-22, 24-58
    2    1 h      23, 59-79, 81
    3    8 o      80

           -------------------------------------------------
          |                 G F N 2 - x T B                 |
           -------------------------------------------------

        Reference                      10.1021/acs.jctc.8b01176
      * Hamiltonian:
        H0-scaling (s, p, d)           1.850000    2.230000    2.230000
        zeta-weighting                 0.500000
      * Dispersion:
        s8                             2.700000
        a1                             0.520000
        a2                             5.000000
        s9                             5.000000
      * Repulsion:
        kExp                           1.500000    1.000000
        rExp                           1.000000
      * Coulomb:
        alpha                          2.000000
        third order                    shell-resolved
        anisotropic                    true
        a3                             3.000000
        a5                             4.000000
        cn-shift                       1.200000
        cn-exp                         4.000000
        max-rad                        5.000000


          ...................................................
          :                      SETUP                      :
          :.................................................:
          :  # basis functions                 255          :
          :  # atomic orbitals                 255          :
          :  # shells                          139          :
          :  # electrons                       257          :
          :  max. iterations                   250          :
          :  Hamiltonian                  GFN2-xTB          :
          :  restarted?                      false          :
          :  GBSA solvation                  false          :
          :  PC potential                    false          :
          :  electronic temp.          300.0000000     K    :
          :  accuracy                    1.0000000          :
          :  -> integral cutoff          0.2500000E+02      :
          :  -> integral neglect         0.1000000E-07      :
          :  -> SCF convergence          0.1000000E-05 Eh   :
          :  -> wf. convergence          0.1000000E-03 e    :
          :  Broyden damping             0.4000000          :
          ...................................................

 iter      E             dE          RMSdq      gap      omega  full diag
   1   -140.5229825 -0.140523E+03  0.490E+00    0.29       0.0  T
   2   -140.3309384  0.192044E+00  0.304E+00    0.31       1.0  T
   3   -138.4974689  0.183347E+01  0.345E+00    0.33       1.0  T
   4   -140.2433760 -0.174591E+01  0.142E+00    0.75       1.0  T
   5   -140.3319686 -0.885925E-01  0.144E+00    0.85       1.0  T
   6   -140.5175457 -0.185577E+00  0.855E-01    0.38       1.0  T
   7   -140.5583463 -0.408006E-01  0.612E-01    0.31       1.0  T
   8   -140.5859876 -0.276413E-01  0.418E-01    0.32       1.0  T
   9   -140.5945298 -0.854226E-02  0.256E-01    0.21       1.0  T
  10   -140.6005371 -0.600727E-02  0.224E-01    0.27       1.0  T
  11   -140.6065679 -0.603081E-02  0.391E-02    0.25       1.0  T
  12   -140.6062022  0.365693E-03  0.568E-02    0.24       1.0  T
  13   -140.6066674 -0.465158E-03  0.105E-02    0.25       1.1  T
  14   -140.6066715 -0.410262E-05  0.744E-03    0.25       1.5  T
  15   -140.6066785 -0.704766E-05  0.256E-03    0.25       4.3  T
  16   -140.6066783  0.263994E-06  0.235E-03    0.25       4.7  T
  17   -140.6066790 -0.735807E-06  0.656E-04    0.25      16.9  T
  18   -140.6066790 -0.201246E-07  0.496E-04    0.25      22.4  T

   *** convergence criteria satisfied after 18 iterations ***

         #    Occupation            Energy/Eh            Energy/eV
      -------------------------------------------------------------
         1        2.0000           -0.6817212             -18.5506
       ...           ...                  ...                  ...
       123        2.0000           -0.3856454             -10.4939
       124        2.0000           -0.3763586             -10.2412
       125        2.0000           -0.3701196             -10.0715
       126        2.0000           -0.3642226              -9.9110
       127        2.0000           -0.3519808              -9.5779
       128        1.8283           -0.3339977              -9.0885
       129        1.1637           -0.3310036              -9.0071 (HOMO)
       130        0.0080           -0.3217979              -8.7566 (LUMO)
       131                         -0.2924235              -7.9572
       132                         -0.2722324              -7.4078
       133                         -0.2667391              -7.2583
       134                         -0.2512325              -6.8364
       ...                                ...                  ...
       255                          0.7508146              20.4307
      -------------------------------------------------------------
                  HL-Gap            0.0092057 Eh            0.2505 eV
             Fermi-level           -0.3294406 Eh           -8.9645 eV

 SCC (total)                   0 d,  0 h,  0 min,  1.159 sec
 SCC setup                      ...        0 min,  0.001 sec (  0.117%)
 Dispersion                     ...        0 min,  0.005 sec (  0.429%)
 classical contributions        ...        0 min,  0.001 sec (  0.122%)
 integral evaluation            ...        0 min,  0.015 sec (  1.310%)
 iterations                     ...        0 min,  1.088 sec ( 93.814%)
 molecular gradient             ...        0 min,  0.046 sec (  3.948%)
 printout                       ...        0 min,  0.003 sec (  0.254%)

         :::::::::::::::::::::::::::::::::::::::::::::::::::::
         ::                     SUMMARY                     ::
         :::::::::::::::::::::::::::::::::::::::::::::::::::::
         :: total energy            -137.990664301447 Eh    ::
         :: gradient norm              0.000161968413 Eh/a0 ::
         :: HOMO-LUMO gap              0.250499310714 eV    ::
         ::.................................................::
         :: SCC energy              -140.606679025235 Eh    ::
         :: -> isotropic ES            0.035714043053 Eh    ::
         :: -> anisotropic ES          0.004714386646 Eh    ::
         :: -> anisotropic XC          0.061530392606 Eh    ::
         :: -> dispersion             -0.149646178426 Eh    ::
         :: repulsion energy           2.617610757294 Eh    ::
         :: add. restraining           0.000000000000 Eh    ::
         :: total charge              -0.000000000000 e     ::
         :::::::::::::::::::::::::::::::::::::::::::::::::::::

           -------------------------------------------------
          |                Property Printout                |
           -------------------------------------------------

    * Orbital Energies and Occupations

         #    Occupation            Energy/Eh            Energy/eV
      -------------------------------------------------------------
         1        2.0000           -0.6817212             -18.5506
       ...           ...                  ...                  ...
       117        2.0000           -0.4052355             -11.0270
       118        2.0000           -0.4036597             -10.9841
       119        2.0000           -0.3994358             -10.8692
       120        2.0000           -0.3980788             -10.8323
       121        2.0000           -0.3965424             -10.7905
       122        2.0000           -0.3943956             -10.7321
       123        2.0000           -0.3856454             -10.4939
       124        2.0000           -0.3763586             -10.2412
       125        2.0000           -0.3701196             -10.0715
       126        2.0000           -0.3642226              -9.9110
       127        2.0000           -0.3519808              -9.5779
       128        1.8283           -0.3339977              -9.0885
       129        1.1637           -0.3310036              -9.0071 (HOMO)
       130        0.0080           -0.3217979              -8.7566 (LUMO)
       131                         -0.2924235              -7.9572
       132                         -0.2722324              -7.4078
       133                         -0.2667391              -7.2583
       134                         -0.2512325              -6.8364
       135                         -0.2393578              -6.5133
       136                         -0.2365149              -6.4359
       137                         -0.2302738              -6.2661
       138                         -0.2229192              -6.0659
       139                         -0.2178255              -5.9273
       140                         -0.2113926              -5.7523
       ...                                ...                  ...
       255                          0.7508146              20.4307
      -------------------------------------------------------------
                  HL-Gap            0.0092057 Eh            0.2505 eV
             Fermi-level           -0.3294406 Eh           -8.9645 eV

     #   Z          covCN         q      C6AA      α(0)
     1   6 c        2.911    -0.034    28.849     8.807
     2   6 c        2.919    -0.042    29.041     8.837
     3   6 c        2.918    -0.039    28.962     8.825
     4   6 c        2.921    -0.038    28.937     8.821
     5   6 c        2.919    -0.034    28.850     8.808
     6   6 c        2.911    -0.034    28.857     8.809
     7   6 c        2.977     0.014    27.692     8.632
     8   6 c        2.980     0.016    27.651     8.626
     9   6 c        2.971     0.013    27.721     8.636
    10   6 c        2.973     0.016    27.643     8.624
    11   6 c        2.987     0.015    27.666     8.628
    12   6 c        2.970     0.014    27.700     8.633
    13   6 c        2.996    -0.000    28.026     8.684
    14   6 c        2.975     0.014    27.704     8.634
    15   6 c        2.998     0.001    27.989     8.678
    16   6 c        2.910    -0.028    28.711     8.786
    17   6 c        2.919    -0.033    28.823     8.804
    18   6 c        2.921    -0.048    29.182     8.859
    19   6 c        2.974     0.012    27.751     8.641
    20   6 c        2.975    -0.006    28.158     8.704
    21   6 c        2.975     0.010    27.783     8.646
    22   6 c        2.928    -0.041    29.031     8.836
    23   1 h        0.926     0.032     2.555     2.500
    24   6 c        2.981     0.015    27.669     8.628
    25   6 c        2.979    -0.032    28.798     8.803
    26   6 c        2.988     0.003    27.949     8.672
    27   6 c        2.995     0.002    27.975     8.676
    28   6 c        2.975     0.013    27.713     8.635
    29   6 c        2.920    -0.045    29.115     8.848
    30   6 c        2.920    -0.041    29.015     8.833
    31   6 c        2.975     0.014    27.701     8.633
    32   6 c        2.989     0.002    27.981     8.677
    33   6 c        2.984     0.007    27.864     8.659
    34   6 c        3.833    -0.082    22.041     6.680
    35   6 c        2.978     0.014    27.703     8.634
    36   6 c        2.839     0.218    23.417     7.930
    37   6 c        2.970    -0.032    28.790     8.801
    38   6 c        2.991     0.002    27.967     8.675
    39   6 c        2.988    -0.009    28.226     8.715
    40   6 c        2.972     0.013    27.731     8.638
    41   6 c        2.920    -0.047    29.160     8.855
    42   6 c        2.919    -0.032    28.802     8.801
    43   6 c        2.909    -0.028    28.701     8.785
    44   6 c        2.994    -0.001    28.034     8.685
    45   6 c        2.974     0.014    27.695     8.632
    46   6 c        2.990     0.002    27.972     8.676
    47   6 c        2.972     0.012    27.739     8.639
    48   6 c        2.980     0.007    27.854     8.657
    49   6 c        2.974     0.013    27.727     8.637
    50   6 c        2.990     0.004    27.931     8.669
    51   6 c        2.974     0.013    27.712     8.635
    52   6 c        2.974     0.014    27.685     8.631
    53   6 c        2.912    -0.035    28.860     8.809
    54   6 c        2.920    -0.032    28.797     8.800
    55   6 c        2.919    -0.040    28.987     8.829
    56   6 c        2.919    -0.048    29.191     8.860
    57   6 c        2.919    -0.041    29.019     8.834
    58   6 c        2.911    -0.035    28.862     8.809
    59   1 h        0.926     0.034     2.536     2.491
    60   1 h        0.926     0.032     2.553     2.498
    61   1 h        0.926     0.031     2.571     2.508
    62   1 h        0.926     0.032     2.565     2.504
    63   1 h        0.926     0.032     2.562     2.503
    64   1 h        0.925     0.032     2.552     2.498
    65   1 h        0.926     0.034     2.533     2.489
    66   1 h        0.926     0.034     2.536     2.490
    67   1 h        0.926     0.032     2.558     2.501
    68   1 h        0.925     0.033     2.537     2.491
    69   1 h        0.926     0.035     2.511     2.478
    70   1 h        0.925     0.035     2.512     2.479
    71   1 h        0.926     0.033     2.543     2.494
    72   1 h        0.926     0.034     2.535     2.490
    73   1 h        0.925     0.034     2.534     2.489
    74   1 h        0.925     0.032     2.554     2.499
    75   1 h        0.925     0.033     2.542     2.493
    76   1 h        0.926     0.032     2.564     2.504
    77   1 h        0.926     0.032     2.557     2.501
    78   1 h        0.927     0.047     2.357     2.401
    79   1 h        0.924     0.053     2.280     2.361
    80   8 o        0.858    -0.435    22.392     6.344
    81   1 h        0.925     0.126     1.562     1.955

 Mol. C6AA /au·bohr⁶  :     117528.903933
 Mol. C8AA /au·bohr⁸  :    3135725.289865
 Mol. α(0) /au        :        557.302301


Wiberg/Mayer (AO) data.
largest (>0.10) Wiberg bond orders for each atom

 ---------------------------------------------------------------------------
     #   Z sym  total        # sym  WBO       # sym  WBO       # sym  WBO
 ---------------------------------------------------------------------------
     1   6 c    3.972 --     6 c    1.693     8 c    1.167    67 h    0.967
     2   6 c    3.885 --     8 c    1.445    10 c    1.273    68 h    0.966
     3   6 c    3.759 --    10 c    1.359    12 c    1.291    69 h    0.966
     4   6 c    3.787 --    12 c    1.367    14 c    1.302    70 h    0.966
     5   6 c    3.844 --    16 c    1.446    14 c    1.299    71 h    0.969
     6   6 c    3.974 --     1 c    1.693     7 c    1.165    63 h    0.967
     7   6 c    3.977 --    18 c    1.450    20 c    1.203     6 c    1.165
     8   6 c    3.977 --     2 c    1.445     9 c    1.201     1 c    1.167
     9   6 c    3.920 --    22 c    1.340     8 c    1.201    20 c    1.200
    10   6 c    3.977 --     3 c    1.359     2 c    1.273    11 c    1.185
    11   6 c    3.926 --    22 c    1.404    10 c    1.185    24 c    1.155
    12   6 c    3.983 --     4 c    1.367     3 c    1.291    13 c    1.166
    13   6 c    3.944 --    24 c    1.314    26 c    1.244    12 c    1.166
    14   6 c    3.984 --     4 c    1.302     5 c    1.299    15 c    1.222
    15   6 c    3.928 --    26 c    1.266    28 c    1.228    14 c    1.222
    16   6 c    3.984 --    17 c    1.447     5 c    1.446    77 h    0.970
    17   6 c    3.842 --    16 c    1.447    28 c    1.297    59 h    0.969
    18   6 c    3.915 --     7 c    1.450    19 c    1.279    64 h    0.966
    19   6 c    3.982 --    30 c    1.355    18 c    1.279    32 c    1.186
    20   6 c    3.944 --    21 c    1.328     7 c    1.203     9 c    1.200
    21   6 c    3.956 --    32 c    1.353    20 c    1.328    34 c    1.033
    22   6 c    3.952 --    11 c    1.404     9 c    1.340    78 h    0.947
    23   1 h    0.998 --    43 c    0.970
    24   6 c    3.969 --    13 c    1.314    25 c    1.269    11 c    1.155
    25   6 c    3.878 --    38 c    1.276    24 c    1.269    36 c    1.076
    26   6 c    3.985 --    15 c    1.266    27 c    1.255    13 c    1.244
    27   6 c    3.953 --    38 c    1.278    26 c    1.255    40 c    1.190
    28   6 c    3.985 --    17 c    1.297    29 c    1.297    15 c    1.228
    29   6 c    3.806 --    40 c    1.380    28 c    1.297    60 h    0.967
    30   6 c    3.852 --    19 c    1.355    31 c    1.334    65 h    0.966
    31   6 c    3.980 --    30 c    1.334    42 c    1.288    44 c    1.197
    32   6 c    3.957 --    21 c    1.353    33 c    1.205    19 c    1.186
    33   6 c    3.968 --    44 c    1.352    32 c    1.205    46 c    1.178
    34   6 c    3.985 --    21 c    1.033    35 c    1.026    79 h    0.917
                            81 h    0.873
    35   6 c    3.955 --    46 c    1.418    48 c    1.265    34 c    1.026
    36   6 c    3.903 --    80 o    1.640    25 c    1.076    37 c    1.057
    37   6 c    3.912 --    48 c    1.292    50 c    1.291    36 c    1.057
    38   6 c    3.975 --    27 c    1.278    25 c    1.276    39 c    1.198
    39   6 c    3.880 --    50 c    1.276    52 c    1.220    38 c    1.198
    40   6 c    3.985 --    29 c    1.380    41 c    1.255    27 c    1.190
    41   6 c    3.822 --    52 c    1.436    40 c    1.255    61 h    0.967
    42   6 c    3.845 --    43 c    1.459    31 c    1.288    66 h    0.969
    43   6 c    3.975 --    42 c    1.459    54 c    1.428    23 h    0.970
    44   6 c    3.971 --    33 c    1.352    31 c    1.197    45 c    1.189
    45   6 c    3.980 --    55 c    1.316    54 c    1.313    44 c    1.189
    46   6 c    3.964 --    35 c    1.418    33 c    1.178    47 c    1.160
    47   6 c    3.982 --    55 c    1.362    56 c    1.301    46 c    1.160
    48   6 c    3.951 --    37 c    1.292    35 c    1.265    49 c    1.175
    49   6 c    3.977 --    56 c    1.393    57 c    1.251    48 c    1.175
    50   6 c    3.952 --    37 c    1.291    39 c    1.276    51 c    1.169
    51   6 c    3.974 --    57 c    1.479    50 c    1.169    58 c    1.168
    52   6 c    3.978 --    41 c    1.436    39 c    1.220    53 c    1.163
    53   6 c    3.967 --    58 c    1.694    52 c    1.163    62 h    0.968
    54   6 c    3.838 --    43 c    1.428    45 c    1.313    72 h    0.969
    55   6 c    3.811 --    47 c    1.362    45 c    1.316    73 h    0.966
    56   6 c    3.856 --    49 c    1.393    47 c    1.301    74 h    0.966
    57   6 c    3.905 --    51 c    1.479    49 c    1.251    75 h    0.966
    58   6 c    3.973 --    53 c    1.694    51 c    1.168    76 h    0.967
    59   1 h    0.998 --    17 c    0.969
    60   1 h    0.998 --    29 c    0.967
    61   1 h    0.998 --    41 c    0.967
    62   1 h    0.997 --    53 c    0.968
    63   1 h    0.997 --     6 c    0.967
    64   1 h    0.998 --    18 c    0.966
    65   1 h    0.997 --    30 c    0.966
    66   1 h    0.998 --    42 c    0.969
    67   1 h    0.997 --     1 c    0.967
    68   1 h    0.997 --     2 c    0.966
    69   1 h    0.997 --     3 c    0.966
    70   1 h    0.997 --     4 c    0.966
    71   1 h    0.998 --     5 c    0.969
    72   1 h    0.998 --    54 c    0.969
    73   1 h    0.997 --    55 c    0.966
    74   1 h    0.997 --    56 c    0.966
    75   1 h    0.997 --    57 c    0.966
    76   1 h    0.997 --    58 c    0.967
    77   1 h    0.998 --    16 c    0.970
    78   1 h    0.997 --    22 c    0.947
    79   1 h    0.991 --    34 c    0.917
    80   8 o    1.939 --    36 c    1.640
    81   1 h    0.979 --    34 c    0.873
 ---------------------------------------------------------------------------

Topologies differ in total number of bonds
Writing topology from bond orders to xtbtopo.mol

molecular dipole:
                 x           y           z       tot (Debye)
 q only:        0.010      -0.223      -1.070
   full:        0.000      -0.057      -1.056       2.688
molecular quadrupole (traceless):
                xx          xy          yy          xz          yz          zz
 q only:       39.370      -9.653      23.452     -11.086     -23.718     -62.821
  q+dip:       53.347      -9.378      40.571     -12.528     -20.332     -93.918
   full:       42.015      -8.461      30.587     -11.719     -18.697     -72.602


           -------------------------------------------------
          | TOTAL ENERGY             -137.990664301447 Eh   |
          | GRADIENT NORM               0.000161968413 Eh/α |
          | HOMO-LUMO GAP               0.250499310714 eV   |
           -------------------------------------------------

------------------------------------------------------------------------
 * finished run on 2024/11/21 at 16:28:28.097     
------------------------------------------------------------------------
 total:
 * wall-time:     0 d,  0 h,  0 min,  1.192 sec
 *  cpu-time:     0 d,  0 h,  0 min, 28.563 sec
 * ratio c/w:    23.961 speedup
 SCF:
 * wall-time:     0 d,  0 h,  0 min,  1.161 sec
 *  cpu-time:     0 d,  0 h,  0 min, 27.845 sec
 * ratio c/w:    23.977 speedup

