      -----------------------------------------------------------      
     |                   =====================                   |     
     |                           x T B                           |     
     |                   =====================                   |     
     |                         S. Grimme                         |     
     |          Mulliken Center for Theoretical Chemistry        |     
     |                    University of Bonn                     |     
      -----------------------------------------------------------      

   * xtb version 6.7.1 (edcfbbe) compiled by 'conda@3ef47c1a292c' on 2024-11-25

   xtb is free software: you can redistribute it and/or modify it under
   the terms of the GNU Lesser General Public License as published by
   the Free Software Foundation, either version 3 of the License, or
   (at your option) any later version.
   
   xtb is distributed in the hope that it will be useful,
   but WITHOUT ANY WARRANTY; without even the implied warranty of
   MERCHANTABILITY or FITNESS FOR A PARTICULAR PURPOSE.  See the
   GNU Lesser General Public License for more details.
   
   Cite this work as:
   * C. Bannwarth, E. Caldeweyher, S. Ehlert, A. Hansen, P. Pracht,
     J. Seibert, S. Spicher, S. Grimme, WIREs Comput. Mol. Sci., 2020, 11,
     e01493. DOI: 10.1002/wcms.1493
   
   for GFN2-xTB:
   * C. Bannwarth, S. Ehlert and S. Grimme., J. Chem. Theory Comput., 2019,
     15, 1652-1671. DOI: 10.1021/acs.jctc.8b01176
   for GFN1-xTB:
   * S. Grimme, C. Bannwarth, P. Shushkov, J. Chem. Theory Comput., 2017,
     13, 1989-2009. DOI: 10.1021/acs.jctc.7b00118
   for GFN0-xTB:
   * P. Pracht, E. Caldeweyher, S. Ehlert, S. Grimme, ChemRxiv, 2019, preprint.
     DOI: 10.26434/chemrxiv.8326202.v1
   for GFN-FF:
   * S. Spicher and S. Grimme, Angew. Chem. Int. Ed., 2020, 59, 15665-15673.
     DOI: 10.1002/anie.202004239
   
   for ALPB and GBSA implicit solvation:
   * S. Ehlert, M. Stahn, S. Spicher, S. Grimme, J. Chem. Theory Comput.,
     2021, 17, 4250-4261. DOI: 10.1021/acs.jctc.1c00471
   
   for ddCOSMO and CPCM-X implicit solvation:
   * M. Stahn, S. Ehlert, S. Grimme, J. Phys. Chem. A,
     2023, XX, XXXX-XXXX. DOI: 10.1021/acs.jpca.3c04382
   
   for DFT-D4:
   * E. Caldeweyher, C. Bannwarth and S. Grimme, J. Chem. Phys., 2017,
     147, 034112. DOI: 10.1063/1.4993215
   * E. Caldeweyher, S. Ehlert, A. Hansen, H. Neugebauer, S. Spicher,
     C. Bannwarth and S. Grimme, J. Chem. Phys., 2019, 150, 154122.
     DOI: 10.1063/1.5090222
   * E. Caldeweyher, J.-M. Mewes, S. Ehlert and S. Grimme, Phys. Chem. Chem. Phys.
     2020, 22, 8499-8512. DOI: 10.1039/D0CP00502A
   
   for sTDA-xTB:
   * S. Grimme and C. Bannwarth, J. Chem. Phys., 2016, 145, 054103.
     DOI: 10.1063/1.4959605
   
   in the mass-spec context:
   * V. Asgeirsson, C. Bauer and S. Grimme, Chem. Sci., 2017, 8, 4879.
     DOI: 10.1039/c7sc00601b
   * J. Koopman and S. Grimme, ACS Omega 2019, 4, 12, 15120-15133.
     DOI: 10.1021/acsomega.9b02011
   
   for metadynamics refer to:
   * S. Grimme, J. Chem. Theory Comput., 2019, 155, 2847-2862
     DOI: 10.1021/acs.jctc.9b00143
   
   for SPH calculations refer to:
   * S. Spicher and S. Grimme, J. Chem. Theory Comput., 2021, 17, 1701-1714
     DOI: 10.1021/acs.jctc.0c01306
   
   for ONIOM refer to:
   * C. Plett, A. Katbashev, S. Ehlert, S. Grimme, M. Bursch,
     Phys. Chem. Chem. Phys., 2023, 25, 17860-17868. DOI: 10.1039/D3CP02178E
   
   for DIPRO refer to:
   * J. Kohn, N. Gildemeister, S. Grimme, D. Fazzi, A. Hansen,
     J. Chem. Phys., 2023, just accepted.
   
   for PTB refer to:
   * S. Grimme, M. Mueller, A. Hansen, J. Chem. Phys., 2023, 158, 124111.
     DOI: 10.1063/5.0137838
   
   with help from (in alphabetical order)
   P. Atkinson, C. Bannwarth, F. Bohle, G. Brandenburg, E. Caldeweyher
   M. Checinski, S. Dohm, S. Ehlert, S. Ehrlich, I. Gerasimov, C. Hölzer
   A. Katbashev, J. Kohn, J. Koopman, C. Lavigne, S. Lehtola, F. März, M. Müller,
   F. Musil, H. Neugebauer, J. Pisarek, C. Plett, P. Pracht, F. Pultar,
   J. Seibert, P. Shushkov, S. Spicher, M. Stahn, M. Steiner, T. Strunk,
   J. Stückrath, T. Rose, and J. Unsleber
   
 * started run on 2024/11/28 at 16:27:23.523     
   ID    Z sym.   atoms
    1    6 c      1-58
    2    1 h      59-78

           -------------------------------------------------
          |                Calculation Setup                |
           -------------------------------------------------

          program call               : /home/olli/anaconda3/bin/xtb defect
          coordinate file            : defect
          omp threads                :                    16


           -------------------------------------------------
          |                 G F N 2 - x T B                 |
           -------------------------------------------------

        Reference                      10.1021/acs.jctc.8b01176
      * Hamiltonian:
        H0-scaling (s, p, d)           1.850000    2.230000    2.230000
        zeta-weighting                 0.500000
      * Dispersion:
        s8                             2.700000
        a1                             0.520000
        a2                             5.000000
        s9                             5.000000
      * Repulsion:
        kExp                           1.500000    1.000000
        rExp                           1.000000
      * Coulomb:
        alpha                          2.000000
        third order                    shell-resolved
        anisotropic                    true
        a3                             3.000000
        a5                             4.000000
        cn-shift                       1.200000
        cn-exp                         4.000000
        max-rad                        5.000000


          ...................................................
          :                      SETUP                      :
          :.................................................:
          :  # basis functions                 252          :
          :  # atomic orbitals                 252          :
          :  # shells                          136          :
          :  # electrons                       252          :
          :  max. iterations                   250          :
          :  Hamiltonian                  GFN2-xTB          :
          :  restarted?                      false          :
          :  GBSA solvation                  false          :
          :  PC potential                    false          :
          :  electronic temp.          300.0000000     K    :
          :  accuracy                    1.0000000          :
          :  -> integral cutoff          0.2500000E+02      :
          :  -> integral neglect         0.1000000E-07      :
          :  -> SCF convergence          0.1000000E-05 Eh   :
          :  -> wf. convergence          0.1000000E-03 e    :
          :  Broyden damping             0.4000000          :
          :  net charge                          0          :
          :  unpaired electrons                  0          :
          ...................................................

 iter      E             dE          RMSdq      gap      omega  full diag
   1   -137.3504607 -0.137350E+03  0.479E+00    0.31       0.0  T
   2   -137.3781970 -0.277363E-01  0.286E+00    0.30       1.0  T
   3   -137.3183517  0.598453E-01  0.781E-01    0.32       1.0  T
   4   -137.3469729 -0.286212E-01  0.634E-01    0.33       1.0  T
   5   -137.3794481 -0.324752E-01  0.253E-01    0.31       1.0  T
   6   -137.3154829  0.639651E-01  0.669E-01    0.39       1.0  T
   7   -137.3850251 -0.695422E-01  0.109E-01    0.31       1.0  T
   8   -137.3865236 -0.149841E-02  0.249E-02    0.31       1.0  T
   9   -137.3865559 -0.323113E-04  0.137E-02    0.31       1.0  T
  10   -137.3865629 -0.699614E-05  0.734E-03    0.31       1.5  T
  11   -137.3865707 -0.782276E-05  0.142E-03    0.31       8.0  T
  12   -137.3865708 -0.145536E-06  0.530E-04    0.31      21.3  T
  13   -137.3865709 -0.256628E-07  0.253E-04    0.31      44.8  T

   *** convergence criteria satisfied after 13 iterations ***

         #    Occupation            Energy/Eh            Energy/eV
      -------------------------------------------------------------
         1        2.0000           -0.6609315             -17.9849
       ...           ...                  ...                  ...
       120        2.0000           -0.3918814             -10.6636
       121        2.0000           -0.3883180             -10.5667
       122        2.0000           -0.3849686             -10.4755
       123        2.0000           -0.3844822             -10.4623
       124        2.0000           -0.3676116             -10.0032
       125        2.0000           -0.3444552              -9.3731
       126        1.9949           -0.3297492              -8.9729 (HOMO)
       127        0.0051           -0.3184225              -8.6647 (LUMO)
       128                         -0.3023050              -8.2261
       129                         -0.2752640              -7.4903
       130                         -0.2530138              -6.8849
       131                         -0.2518211              -6.8524
       ...                                ...                  ...
       252                          0.7778073              21.1652
      -------------------------------------------------------------
                  HL-Gap            0.0113268 Eh            0.3082 eV
             Fermi-level           -0.3240859 Eh           -8.8188 eV

 SCC (total)                   0 d,  0 h,  0 min,  0.578 sec
 SCC setup                      ...        0 min,  0.000 sec (  0.078%)
 Dispersion                     ...        0 min,  0.004 sec (  0.740%)
 classical contributions        ...        0 min,  0.000 sec (  0.033%)
 integral evaluation            ...        0 min,  0.009 sec (  1.554%)
 iterations                     ...        0 min,  0.523 sec ( 90.464%)
 molecular gradient             ...        0 min,  0.036 sec (  6.179%)
 printout                       ...        0 min,  0.005 sec (  0.947%)

         :::::::::::::::::::::::::::::::::::::::::::::::::::::
         ::                     SUMMARY                     ::
         :::::::::::::::::::::::::::::::::::::::::::::::::::::
         :: total energy            -134.718093614605 Eh    ::
         :: gradient norm              0.000729912339 Eh/a0 ::
         :: HOMO-LUMO gap              0.308216981302 eV    ::
         ::.................................................::
         :: SCC energy              -137.389057209697 Eh    ::
         :: -> isotropic ES            0.001999628768 Eh    ::
         :: -> anisotropic ES          0.007721120041 Eh    ::
         :: -> anisotropic XC          0.058289552855 Eh    ::
         :: -> dispersion             -0.148582698352 Eh    ::
         :: repulsion energy           2.670963595092 Eh    ::
         :: add. restraining           0.000000000000 Eh    ::
         :: total charge               0.000000000751 e     ::
         :::::::::::::::::::::::::::::::::::::::::::::::::::::


Property printout bound to 'properties.out'

           -------------------------------------------------
          | TOTAL ENERGY             -134.718093614605 Eh   |
          | GRADIENT NORM               0.000729912339 Eh/α |
          | HOMO-LUMO GAP               0.308216981302 eV   |
           -------------------------------------------------

------------------------------------------------------------------------
 * finished run on 2024/11/28 at 16:27:24.124     
------------------------------------------------------------------------
 total:
 * wall-time:     0 d,  0 h,  0 min,  0.601 sec
 *  cpu-time:     0 d,  0 h,  0 min,  1.896 sec
 * ratio c/w:     3.153 speedup
 SCF:
 * wall-time:     0 d,  0 h,  0 min,  0.579 sec
 *  cpu-time:     0 d,  0 h,  0 min,  1.775 sec
 * ratio c/w:     3.065 speedup

