78
 energy: -134.718093598199 gnorm: 0.000730003295 xtb: 6.7.1 (edcfbbe)
c            1.22095000024109        0.72522100014321        9.99999000197462
c            0.01451840000287        2.86809000056634       10.00000000197462
c           -1.19252000023548        5.00533000098836       10.00000000197462
c           -2.39655000047323        7.14307000141048       10.00000000197462
c           -3.60051000071096        9.28724000183388        9.99999000197462
c            2.38328000047061        0.04271680000844       10.00000000197462
c            3.64988000072071        0.71567500014132       10.00000000197462
c            1.19141000023526        2.15898000042632       10.00000000197462
c            2.44361000048252        2.85546000056385        9.99999000197462
c           -0.00828224000164        4.28500000084612       10.00000000197462
c            1.23928000024471        4.98635000098461        9.99999000197462
c           -1.20862000023866        6.41409000126654       10.00000000197462
c            0.03689610000729        7.11664000140527        9.99999000197462
c           -2.40429000047476        8.54525000168736       10.00000000197462
c           -1.16570000023018        9.24713000182596       10.00000000197462
c           -3.57681000070628       10.66740000210641        9.99997000197462
c           -2.37794000046955       11.35700000224258       10.00000000197462
c            4.84281000095627        0.03335280000659       10.00000000197462
c            6.09093000120273        0.70417200013905       10.00000000197462
c            3.64879000072050        2.14776000042410        9.99999000197462
c            4.88681000096496        2.84331000056144        9.99999000197462
c            2.44844000048347        4.27421000084399        9.99999000197462
c            3.68507000072766        4.97313000098200        9.99999000197462
c            1.24715000024627        6.40193000126414        9.99999000197462
c            2.48320000049034        7.10129000140224        9.99999000197462
c            0.04793740000947        8.53193000168473       10.00000000197462
c            1.28189000025312        9.22921000182242       10.00000000197462
c           -1.15282000022764       10.66920000210676       10.00000000197462
c            0.08188690001617       11.34260000223973       10.00000000197462
c            7.29811000144110        0.01966450000388       10.00000000197462
c            8.53282000168491        0.69307300013685       10.00000000197462
c            6.09811000120415        2.13304000042120        9.99999000197462
c            7.33206000144780        2.83032000055888       10.00000000197462
c            4.89680000096693        4.26096000084137        9.99999000197462
c            6.13285000121101        4.96032000097947        9.99999000197462
c            3.69493000072961        6.38913000126161        9.99999000197462
c            4.93156000097380        7.08804000139962        9.99999000197462
c            2.49319000049231        8.51894000168217        9.99999000197462
c            3.73121000073677        9.21449000181951       10.00000000197462
c            1.28907000025454       10.65810000210457       10.00000000197462
c            2.53719000050100       11.32890000223703       10.00000000197462
c            9.75794000192682        0.00529256000105       10.00000000197462
c           10.95680000216355        0.69485200013721        9.99999000197462
c            8.54570000168745        2.11512000041766       10.00000000197462
c            9.78429000193203        2.81701000055625       10.00000000197462
c            7.34310000144998        4.24561000083835       10.00000000197462
c            8.58862000169592        4.94817000097708       10.00000000197462
c            6.14072000121256        6.37590000125900        9.99999000197462
c            7.38828000145890        7.07726000139749       10.00000000197462
c            4.93639000097475        8.50679000167977        9.99999000197462
c            6.18859000122201        9.20327000181729       10.00000000197462
c            3.73012000073656       10.64660000210230       10.00000000197462
c            4.99672000098666       11.31950000223517       10.00000000197462
c           10.98050000216823        2.07501000040974       10.00000000197462
c            9.77655000193050        4.21918000083313       10.00000000197462
c            8.57252000169275        6.35692000125525       10.00000000197462
c            7.36548000145440        8.49417000167728       10.00000000197462
c            6.15905000121618       10.63700000210041        9.99999000197462
h           -2.37059000046810       12.43720000245587        9.99999000197462
h            0.08539460001686       12.42370000245321       10.00000000197462
h            2.53868000050129       12.41030000245056       10.00000000197462
h            4.98976000098529       12.40050000244863       10.00000000197462
h            2.39024000047198       -1.03827000020502       10.00000000197462
h            4.84132000095597       -1.04804000020695       10.00000000197462
h            7.29461000144041       -1.06149000020961       10.00000000197462
h            9.75059000192537       -1.07493000021226       10.00000000197462
h            0.27360100005403        0.20428200004034       10.00000000197462
h           -0.92935400018351        2.34003000046207       10.00000000197462
h           -2.13576000042173        4.47660000088396       10.00000000197462
h           -3.34023000065957        6.61524000130626       10.00000000197462
h           -4.54231000089693        8.75807000172939       10.00000000197462
h           11.92230000235420        2.60419000051423       10.00000000197462
h           10.72020000211683        4.74702000093736       10.00000000197462
h            9.51576000187900        6.88565000135965       10.00000000197462
h            8.30935000164078        9.02222000178155       10.00000000197462
h            7.10640000140324       11.15800000220328       10.00000000197462
h           -4.50778000089011       11.21660000221486       10.00000000197462
h           11.88780000234739        0.14566200002876       10.00000000197462
78
 energy: -134.718094732450 gnorm: 0.000267086805 xtb: 6.7.1 (edcfbbe)
c            1.22109159600714        0.72543573856895       10.00000176956300
c            0.01463350154281        2.86828078573525        9.99999176553877
c           -1.19250391443276        5.00548930668806        9.99999155676659
c           -2.39671355900043        7.14322513002196        9.99998920869357
c           -3.60089630152499        9.28736029870809       10.00000323912110
c            2.38338604777579        0.04298195467929       10.00000182160472
c            3.64996600656146        0.71573630968724       10.00000201339110
c            1.19148543161414        2.15912814792131        9.99999754192592
c            2.44368907671812        2.85562058321302       10.00000006081241
c           -0.00827768818675        4.28512000042924        9.99999524578855
c            1.23925538164728        4.98655053807515        9.99999931037144
c           -1.20875800510197        6.41422628516300        9.99999380984309
c            0.03671112597924        7.11689887632998        9.99999888849355
c           -2.40463877350898        8.54543929446061        9.99999814726486
c           -1.16600707950183        9.24746409851993        9.99999870518680
c           -3.57712881073454       10.66759758008849       10.00001073239602
c           -2.37825857985068       11.35715689390791        9.99999855463545
c            4.84281894912975        0.03334145149227        9.99999494197970
c            6.09105551900098        0.70396211567201        9.99999786442560
c            3.64890967869640        2.14783100486596       10.00000288950821
c            4.88695590589885        2.84324771855008       10.00000565864708
c            2.44843621452061        4.27434937992970       10.00000268670964
c            3.68512733520297        4.97312211825577       10.00000672567487
c            1.24700630447121        6.40214940183449       10.00000339959159
c            2.48312325286982        7.10134610169106       10.00000638345986
c            0.04765789280430        8.53223256079604        9.99999963724423
c            1.28171431832635        9.22937827234852        9.99999953937041
c           -1.15307273564802       10.66958512775973        9.99999468794968
c            0.08177146025167       11.34282403361247        9.99998853227621
c            7.29822517349137        0.01943124465478        9.99999246624894
c            8.53306725038604        0.69267046634694        9.99999798559572
c            6.09828430147706        2.13287363815070       10.00000199829774
c            7.33233852336890        2.83002260510244       10.00000152454786
c            4.89687436141257        4.26090611368866       10.00000638894061
c            6.13299164361728        4.96010267416954       10.00000101770759
c            3.69487137261895        6.38913091136511       10.00000636771339
c            4.93156403712418        7.08790204019787       10.00000339098922
c            2.49304333832582        8.51900602254062       10.00000137030090
c            3.73109172977104        9.21441905199330       10.00000107502153
c            1.28894227286317       10.65829073613399        9.99999211152602
c            2.53717858867624       11.32890674510388        9.99999241518331
c            9.75825537295246        0.00510255580295       10.00000013086704
c           10.95712730910157        0.69465793584667       10.00000472141446
c            8.54600147575019        2.11478946593884        9.99999872217033
c            9.78463410450847        2.81681785643856        9.99999657423601
c            7.34328508921758        4.24535322020624       10.00000115909486
c            8.58875388391404        4.94802659506346        9.99999569356775
c            6.14074477386134        6.37570026427880        9.99999912069562
c            7.38827776677791        7.07712943088533        9.99999615887865
c            4.93631191103922        8.50663152717415        9.99999949636780
c            6.18851968698495        9.20312312933111        9.99999693228010
c            3.73003652546127       10.64651990801240        9.99999544263328
c            4.99661596142488       11.31926819256030        9.99999976515306
c           10.98089000223673        2.07489892691115       10.00000036412507
c            9.77670949685730        4.21902773322114        9.99999387927266
c            8.57250228470331        6.35675817414016        9.99999425664688
c            7.36537193785558        8.49396575587141        9.99999332355648
c            6.15891271616353       10.63681218142987       10.00000083641479
h           -2.37176214238652       12.43742152691044        9.99999559448038
h            0.08513829630411       12.42401921923498        9.99999004032846
h            2.53875352818052       12.41031532560953        9.99999282255592
h            4.99013361943767       12.40025170503941        9.99999601206495
h            2.38987267540008       -1.03800013833125        9.99999405873455
h            4.84124373748234       -1.04806509769085        9.99998573298548
h            7.29486404650330       -1.06175712420750        9.99998800682691
h            9.75175560418592       -1.07516283432957        9.99999604034157
h            0.27400947565780        0.20425986596412        9.99998912772678
h           -0.92898099515921        2.34006375528796        9.99998725301861
h           -2.13544197461562        4.47654962687350        9.99998338270322
h           -3.33998958242064        6.61505349978506        9.99998890107796
h           -4.54279933168079        8.75834031107886        9.99999208331264
h           11.92279007035196        2.60392588112883        9.99999647341575
h           10.71998373234132        4.74720926524551        9.99999527920167
h            9.51544014837973        6.88569982382039        9.99998983486132
h            8.30898928908472        9.02217849617946        9.99998900546270
h            7.10598165797581       11.15800512404199        9.99999027220331
h           -4.50766092713027       11.21716050184486        9.99997789560807
h           11.88766484547041        0.14510880244926        9.99999232942853
