      -----------------------------------------------------------      
     |                   =====================                   |     
     |                           x T B                           |     
     |                   =====================                   |     
     |                         S. Grimme                         |     
     |          Mulliken Center for Theoretical Chemistry        |     
     |                    University of Bonn                     |     
      -----------------------------------------------------------      

   * xtb version 6.7.1 (edcfbbe) compiled by 'conda@3ef47c1a292c' on 2024-11-25

   xtb is free software: you can redistribute it and/or modify it under
   the terms of the GNU Lesser General Public License as published by
   the Free Software Foundation, either version 3 of the License, or
   (at your option) any later version.
   
   xtb is distributed in the hope that it will be useful,
   but WITHOUT ANY WARRANTY; without even the implied warranty of
   MERCHANTABILITY or FITNESS FOR A PARTICULAR PURPOSE.  See the
   GNU Lesser General Public License for more details.
   
   Cite this work as:
   * C. Bannwarth, E. Caldeweyher, S. Ehlert, A. Hansen, P. Pracht,
     J. Seibert, S. Spicher, S. Grimme, WIREs Comput. Mol. Sci., 2020, 11,
     e01493. DOI: 10.1002/wcms.1493
   
   for GFN2-xTB:
   * C. Bannwarth, S. Ehlert and S. Grimme., J. Chem. Theory Comput., 2019,
     15, 1652-1671. DOI: 10.1021/acs.jctc.8b01176
   for GFN1-xTB:
   * S. Grimme, C. Bannwarth, P. Shushkov, J. Chem. Theory Comput., 2017,
     13, 1989-2009. DOI: 10.1021/acs.jctc.7b00118
   for GFN0-xTB:
   * P. Pracht, E. Caldeweyher, S. Ehlert, S. Grimme, ChemRxiv, 2019, preprint.
     DOI: 10.26434/chemrxiv.8326202.v1
   for GFN-FF:
   * S. Spicher and S. Grimme, Angew. Chem. Int. Ed., 2020, 59, 15665-15673.
     DOI: 10.1002/anie.202004239
   
   for ALPB and GBSA implicit solvation:
   * S. Ehlert, M. Stahn, S. Spicher, S. Grimme, J. Chem. Theory Comput.,
     2021, 17, 4250-4261. DOI: 10.1021/acs.jctc.1c00471
   
   for ddCOSMO and CPCM-X implicit solvation:
   * M. Stahn, S. Ehlert, S. Grimme, J. Phys. Chem. A,
     2023, XX, XXXX-XXXX. DOI: 10.1021/acs.jpca.3c04382
   
   for DFT-D4:
   * E. Caldeweyher, C. Bannwarth and S. Grimme, J. Chem. Phys., 2017,
     147, 034112. DOI: 10.1063/1.4993215
   * E. Caldeweyher, S. Ehlert, A. Hansen, H. Neugebauer, S. Spicher,
     C. Bannwarth and S. Grimme, J. Chem. Phys., 2019, 150, 154122.
     DOI: 10.1063/1.5090222
   * E. Caldeweyher, J.-M. Mewes, S. Ehlert and S. Grimme, Phys. Chem. Chem. Phys.
     2020, 22, 8499-8512. DOI: 10.1039/D0CP00502A
   
   for sTDA-xTB:
   * S. Grimme and C. Bannwarth, J. Chem. Phys., 2016, 145, 054103.
     DOI: 10.1063/1.4959605
   
   in the mass-spec context:
   * V. Asgeirsson, C. Bauer and S. Grimme, Chem. Sci., 2017, 8, 4879.
     DOI: 10.1039/c7sc00601b
   * J. Koopman and S. Grimme, ACS Omega 2019, 4, 12, 15120-15133.
     DOI: 10.1021/acsomega.9b02011
   
   for metadynamics refer to:
   * S. Grimme, J. Chem. Theory Comput., 2019, 155, 2847-2862
     DOI: 10.1021/acs.jctc.9b00143
   
   for SPH calculations refer to:
   * S. Spicher and S. Grimme, J. Chem. Theory Comput., 2021, 17, 1701-1714
     DOI: 10.1021/acs.jctc.0c01306
   
   for ONIOM refer to:
   * C. Plett, A. Katbashev, S. Ehlert, S. Grimme, M. Bursch,
     Phys. Chem. Chem. Phys., 2023, 25, 17860-17868. DOI: 10.1039/D3CP02178E
   
   for DIPRO refer to:
   * J. Kohn, N. Gildemeister, S. Grimme, D. Fazzi, A. Hansen,
     J. Chem. Phys., 2023, just accepted.
   
   for PTB refer to:
   * S. Grimme, M. Mueller, A. Hansen, J. Chem. Phys., 2023, 158, 124111.
     DOI: 10.1063/5.0137838
   
   with help from (in alphabetical order)
   P. Atkinson, C. Bannwarth, F. Bohle, G. Brandenburg, E. Caldeweyher
   M. Checinski, S. Dohm, S. Ehlert, S. Ehrlich, I. Gerasimov, C. Hölzer
   A. Katbashev, J. Kohn, J. Koopman, C. Lavigne, S. Lehtola, F. März, M. Müller,
   F. Musil, H. Neugebauer, J. Pisarek, C. Plett, P. Pracht, F. Pultar,
   J. Seibert, P. Shushkov, S. Spicher, M. Stahn, M. Steiner, T. Strunk,
   J. Stückrath, T. Rose, and J. Unsleber
   
 * started run on 2025/01/15 at 17:23:09.675     
   ID    Z sym.   atoms
    1    6 c      1, 4-61
    2    8 o      2, 3
    3    1 h      62-81

           -------------------------------------------------
          |                Calculation Setup                |
           -------------------------------------------------

          program call               : xtb interaction --opt
          coordinate file            : interaction
          omp threads                :                    16


molecular fragmentation (1/2 indicates fragments):
111222222222222222222222222222222222222222222222222222222222222222222222
222222222
# atoms in fragment 1/2:     3    78
 fragment masses (1/2) :       44.01      716.78
CMA distance (Bohr)    :  23.678
constraining FC (au)   :  0.0500

           -------------------------------------------------
          |                 G F N 2 - x T B                 |
           -------------------------------------------------

        Reference                      10.1021/acs.jctc.8b01176
      * Hamiltonian:
        H0-scaling (s, p, d)           1.850000    2.230000    2.230000
        zeta-weighting                 0.500000
      * Dispersion:
        s8                             2.700000
        a1                             0.520000
        a2                             5.000000
        s9                             5.000000
      * Repulsion:
        kExp                           1.500000    1.000000
        rExp                           1.000000
      * Coulomb:
        alpha                          2.000000
        third order                    shell-resolved
        anisotropic                    true
        a3                             3.000000
        a5                             4.000000
        cn-shift                       1.200000
        cn-exp                         4.000000
        max-rad                        5.000000


          ...................................................
          :                      SETUP                      :
          :.................................................:
          :  # basis functions                 264          :
          :  # atomic orbitals                 264          :
          :  # shells                          142          :
          :  # electrons                       268          :
          :  max. iterations                   250          :
          :  Hamiltonian                  GFN2-xTB          :
          :  restarted?                      false          :
          :  GBSA solvation                  false          :
          :  PC potential                    false          :
          :  electronic temp.          300.0000000     K    :
          :  accuracy                    1.0000000          :
          :  -> integral cutoff          0.2500000E+02      :
          :  -> integral neglect         0.1000000E-07      :
          :  -> SCF convergence          0.1000000E-05 Eh   :
          :  -> wf. convergence          0.1000000E-03 e    :
          :  Broyden damping             0.4000000          :
          :  net charge                          0          :
          :  unpaired electrons                  0          :
          ...................................................

 iter      E             dE          RMSdq      gap      omega  full diag
   1   -147.7539900 -0.147754E+03  0.492E+00    0.31       0.0  T
   2   -147.8047232 -0.507333E-01  0.289E+00    0.31       1.0  T
   3   -147.5306932  0.274030E+00  0.146E+00    0.79       1.0  T
   4   -147.3621531  0.168540E+00  0.173E+00    1.28       1.0  T
   5   -147.7916798 -0.429527E+00  0.427E-01    0.33       1.0  T
   6   -147.8094177 -0.177380E-01  0.257E-01    0.32       1.0  T
   7   -147.8171006 -0.768284E-02  0.644E-02    0.31       1.0  T
   8   -147.8170055  0.951002E-04  0.561E-02    0.31       1.0  T
   9   -147.8166478  0.357641E-03  0.737E-02    0.31       1.0  T
  10   -147.8173756 -0.727740E-03  0.161E-02    0.31       1.0  T
  11   -147.8173976 -0.220621E-04  0.330E-03    0.31       3.4  T
  12   -147.8173974  0.205297E-06  0.235E-03    0.31       4.7  T
  13   -147.8173982 -0.777945E-06  0.684E-04    0.31      16.2  T
  14   -147.8173983 -0.410569E-07  0.370E-04    0.31      30.1  T

   *** convergence criteria satisfied after 14 iterations ***

         #    Occupation            Energy/Eh            Energy/eV
      -------------------------------------------------------------
         1        2.0000           -0.8102170             -22.0471
       ...           ...                  ...                  ...
       128        2.0000           -0.3919580             -10.6657
       129        2.0000           -0.3883967             -10.5688
       130        2.0000           -0.3850452             -10.4776
       131        2.0000           -0.3845582             -10.4644
       132        2.0000           -0.3676934             -10.0054
       133        2.0000           -0.3445356              -9.3753
       134        1.9949           -0.3298266              -8.9750 (HOMO)
       135        0.0051           -0.3185001              -8.6668 (LUMO)
       136                         -0.3023857              -8.2283
       137                         -0.2753460              -7.4925
       138                         -0.2530898              -6.8869
       139                         -0.2518978              -6.8545
       ...                                ...                  ...
       264                          1.3664570              37.1832
      -------------------------------------------------------------
                  HL-Gap            0.0113266 Eh            0.3082 eV
             Fermi-level           -0.3241633 Eh           -8.8209 eV

 SCC (total)                   0 d,  0 h,  0 min,  0.603 sec
 SCC setup                      ...        0 min,  0.001 sec (  0.110%)
 Dispersion                     ...        0 min,  0.005 sec (  0.793%)
 classical contributions        ...        0 min,  0.000 sec (  0.036%)
 integral evaluation            ...        0 min,  0.012 sec (  2.013%)
 iterations                     ...        0 min,  0.544 sec ( 90.314%)
 molecular gradient             ...        0 min,  0.035 sec (  5.750%)
 printout                       ...        0 min,  0.006 sec (  0.979%)

         :::::::::::::::::::::::::::::::::::::::::::::::::::::
         ::                     SUMMARY                     ::
         :::::::::::::::::::::::::::::::::::::::::::::::::::::
         :: total energy            -145.026501852873 Eh    ::
         :: gradient norm              0.001021759570 Eh/a0 ::
         :: HOMO-LUMO gap              0.308211953726 eV    ::
         ::.................................................::
         :: SCC energy              -147.819816281512 Eh    ::
         :: -> isotropic ES            0.034331875483 Eh    ::
         :: -> anisotropic ES          0.011126257756 Eh    ::
         :: -> anisotropic XC          0.058717570071 Eh    ::
         :: -> dispersion             -0.149227371708 Eh    ::
         :: repulsion energy           2.793314428639 Eh    ::
         :: add. restraining           0.000000000000 Eh    ::
         :: total charge               0.000000000753 e     ::
         :::::::::::::::::::::::::::::::::::::::::::::::::::::

      ----------------------------------------------------------- 
     |                   =====================                   |
     |                        A N C O P T                        |
     |                   =====================                   |
     |               Approximate Normal Coordinate               |
     |                Rational Function Optimizer                |
      ----------------------------------------------------------- 
      ----------------------------------------------------------- 
     |                   =====================                   |
     |                        A N C O P T                        |
     |                   =====================                   |
     |               Approximate Normal Coordinate               |
     |                Rational Function Optimizer                |
      ----------------------------------------------------------- 

          ...................................................
          :                      SETUP                      :
          :.................................................:
          :   optimization level            normal          :
          :   max. optcycles                   243          :
          :   ANC micro-cycles                  20          :
          :   degrees of freedom               237          :
          :.................................................:
          :   RF solver                   davidson          :
          :   write xtbopt.log                true          :
          :   linear?                        false          :
          :   energy convergence         0.5000000E-05 Eh   :
          :   grad. convergence          0.1000000E-02 Eh/α :
          :   maxmium RF displ.          1.0000000          :
          :   Hlow (freq-cutoff)         0.1000000E-01      :
          :   Hmax (freq-cutoff)         5.0000000          :
          :   S6 in model hess.         20.0000000          :
          ...................................................

generating ANC from exact Hessian ...
Using Lindh-Hessian (1995)
 Shifting diagonal of input Hessian by    9.9927125535057316E-003
 Lowest  eigenvalues of input Hessian
    0.000000    0.000000    0.000000    0.000000    0.000000    0.000000
    0.010000    0.010013    0.010029    0.010064    0.010251    0.010433
    0.010434    0.010704    0.011196    0.011440    0.011969    0.013704
 Highest eigenvalues
    2.128071    2.173756    2.187408    2.187424    2.238027    3.268726


........................................................................
.............................. CYCLE    1 ..............................
........................................................................

 iter      E             dE          RMSdq      gap      omega  full diag
   1   -147.8173983 -0.147817E+03  0.265E-04    0.31       0.0  T
   2   -147.8173972  0.103906E-05  0.251E-03    0.31       4.4  T
   3   -147.8173983 -0.104904E-05  0.748E-05    0.31     148.5  T
   4   -147.8173983 -0.454065E-09  0.478E-05    0.31     232.4  T
   5   -147.8173983 -0.775628E-10  0.380E-05    0.31     292.7  T
     SCC iter.                  ...        0 min,  0.199 sec
     gradient                   ...        0 min,  0.037 sec
 * total energy  :  -145.0265019 Eh     change       -0.1737740E-07 Eh
   gradient norm :     0.0010218 Eh/α   predicted     0.0000000E+00 (-100.00%)
   displ. norm   :     0.0080493 α      lambda       -0.1693307E-05
   maximum displ.:     0.0053167 α      in ANC's #1, #29, #25, ...

........................................................................
.............................. CYCLE    2 ..............................
........................................................................

 iter      E             dE          RMSdq      gap      omega  full diag
   1   -147.8170895 -0.147817E+03  0.433E-03    0.31       0.0  T
   2   -147.8170892  0.347071E-06  0.301E-03    0.31       3.7  T
   3   -147.8170233  0.658200E-04  0.200E-02    0.31       1.0  T
   4   -147.8170895 -0.661370E-04  0.759E-04    0.31      14.6  T
   5   -147.8170895 -0.166793E-07  0.617E-04    0.31      18.0  T
   6   -147.8170895 -0.397137E-07  0.120E-04    0.31      92.3  T
     SCC iter.                  ...        0 min,  0.238 sec
     gradient                   ...        0 min,  0.038 sec
 * total energy  :  -145.0265008 Eh     change        0.1096271E-05 Eh
   gradient norm :     0.0010570 Eh/α   predicted    -0.9071242E-06 (-182.75%)
   displ. norm   :     0.0389024 α      lambda       -0.1202218E-04
   maximum displ.:     0.0198277 α      in ANC's #1, #29, #25, ...

........................................................................
.............................. CYCLE    3 ..............................
........................................................................

 iter      E             dE          RMSdq      gap      omega  full diag
   1   -147.8154027 -0.147815E+03  0.191E-02    0.31       0.0  T
   2   -147.8154025  0.135067E-06  0.116E-02    0.31       1.0  T
   3   -147.8151103  0.292203E-03  0.420E-02    0.31       1.0  T
   4   -147.8153941 -0.283807E-03  0.774E-03    0.31       1.4  T
   5   -147.8154027 -0.860059E-05  0.226E-03    0.31       4.9  T
   6   -147.8154032 -0.514571E-06  0.675E-04    0.31      16.5  T
   7   -147.8154033 -0.232926E-07  0.316E-04    0.31      35.1  T
     SCC iter.                  ...        0 min,  0.278 sec
     gradient                   ...        0 min,  0.036 sec
 * total energy  :  -145.0264459 Eh     change        0.5488501E-04 Eh
   gradient norm :     0.0077997 Eh/α   predicted    -0.6019455E-05 (-110.97%)
   displ. norm   :     0.0231843 α      lambda       -0.7659211E-04
   maximum displ.:     0.0118525 α      in ANC's #29, #25, #1, ...

........................................................................
.............................. CYCLE    4 ..............................
........................................................................

 iter      E             dE          RMSdq      gap      omega  full diag
   1   -147.8166273 -0.147817E+03  0.111E-02    0.31       0.0  T
   2   -147.8166272  0.541417E-07  0.675E-03    0.31       1.6  T
   3   -147.8165081  0.119132E-03  0.268E-02    0.31       1.0  T
   4   -147.8166236 -0.115491E-03  0.519E-03    0.31       2.1  T
   5   -147.8166273 -0.375482E-05  0.151E-03    0.31       7.4  T
   6   -147.8166276 -0.232017E-06  0.476E-04    0.31      23.3  T
   7   -147.8166276 -0.133783E-07  0.226E-04    0.31      49.3  T
     SCC iter.                  ...        0 min,  0.273 sec
     gradient                   ...        0 min,  0.036 sec
 * total energy  :  -145.0264971 Eh     change       -0.5123900E-04 Eh
   gradient norm :     0.0024174 Eh/α   predicted    -0.3871346E-04 ( -24.45%)
   displ. norm   :     0.0114795 α      lambda       -0.1214884E-04
   maximum displ.:     0.0058000 α      in ANC's #29, #1, #25, ...

........................................................................
.............................. CYCLE    5 ..............................
........................................................................

 iter      E             dE          RMSdq      gap      omega  full diag
   1   -147.8171252 -0.147817E+03  0.547E-03    0.31       0.0  T
   2   -147.8171252 -0.382203E-07  0.329E-03    0.31       3.4  T
   3   -147.8171223  0.289010E-05  0.433E-03    0.31       2.6  T
   4   -147.8171181  0.425787E-05  0.660E-03    0.31       1.7  T
   5   -147.8171251 -0.700501E-05  0.120E-03    0.31       9.2  T
   6   -147.8171252 -0.164698E-06  0.211E-04    0.31      52.8  T
   7   -147.8171252 -0.200316E-08  0.115E-04    0.31      96.6  T
     SCC iter.                  ...        0 min,  0.275 sec
     gradient                   ...        0 min,  0.037 sec
 * total energy  :  -145.0265033 Eh     change       -0.6197277E-05 Eh
   gradient norm :     0.0000643 Eh/α   predicted    -0.6136159E-05 (  -0.99%)
   displ. norm   :     0.0054516 α      lambda        0.4560490E-05
   maximum displ.:     0.0029556 α      in ANC's #1, #29, #175, ...

........................................................................
.............................. CYCLE    6 ..............................
........................................................................

 iter      E             dE          RMSdq      gap      omega  full diag
   1   -147.8173331 -0.147817E+03  0.360E-03    0.31       0.0  T
   2   -147.8173330  0.415129E-07  0.229E-03    0.31       4.8  T
   3   -147.8173118  0.211883E-04  0.113E-02    0.31       1.0  T
   4   -147.8173326 -0.207709E-04  0.198E-03    0.31       5.6  T
   5   -147.8173330 -0.452252E-06  0.880E-04    0.31      12.6  T
   6   -147.8173331 -0.787919E-07  0.211E-04    0.31      52.6  T
     SCC iter.                  ...        0 min,  0.236 sec
     gradient                   ...        0 min,  0.034 sec
 * total energy  :  -145.0264994 Eh     change        0.3879903E-05 Eh
   gradient norm :     0.0026110 Eh/α   predicted     0.2176809E-05 ( -43.90%)
   displ. norm   :     0.0036226 α      lambda       -0.5132838E-05
   maximum displ.:     0.0018106 α      in ANC's #1, #29, #175, ...

........................................................................
.............................. CYCLE    7 ..............................
........................................................................

 iter      E             dE          RMSdq      gap      omega  full diag
   1   -147.8171908 -0.147817E+03  0.237E-03    0.31       0.0  T
   2   -147.8171908 -0.251652E-07  0.142E-03    0.31       7.8  T
   3   -147.8171901  0.701682E-06  0.214E-03    0.31       5.2  T
   4   -147.8171881  0.201151E-05  0.406E-03    0.31       2.7  T
   5   -147.8171908 -0.270131E-05  0.424E-04    0.31      26.2  T
   6   -147.8171908 -0.190228E-07  0.107E-04    0.31     103.4  T
   7   -147.8171908 -0.796149E-09  0.453E-05    0.31     245.2  T
     SCC iter.                  ...        0 min,  0.274 sec
     gradient                   ...        0 min,  0.038 sec
 * total energy  :  -145.0265029 Eh     change       -0.3454294E-05 Eh
   gradient norm :     0.0008628 Eh/α   predicted    -0.2587711E-05 ( -25.09%)
   displ. norm   :     0.0054339 α      lambda        0.0000000E+00
   maximum displ.:     0.0027158 α      in ANC's #1, #29, #175, ...

   *** GEOMETRY OPTIMIZATION CONVERGED AFTER 7 ITERATIONS ***

------------------------------------------------------------------------
 total energy gain   :        -0.0000010 Eh       -0.0007 kcal/mol
 total RMSD          :         0.0010032 a0        0.0005 Å
 total power (kW/mol):        -0.0003926 (step)   -0.0013 (real)
------------------------------------------------------------------------

 ANCopt (total)                0 d,  0 h,  0 min,  2.185 sec
 optimizer setup                ...        0 min,  0.000 sec (  0.007%)
 model hessian                  ...        0 min,  0.018 sec (  0.838%)
 ANC generation                 ...        0 min,  0.016 sec (  0.749%)
 coordinate transformation      ...        0 min,  0.000 sec (  0.023%)
 single point calculation       ...        0 min,  2.145 sec ( 98.160%)
 optimization log               ...        0 min,  0.002 sec (  0.079%)
 hessian update                 ...        0 min,  0.002 sec (  0.073%)
 rational function              ...        0 min,  0.001 sec (  0.048%)

================
 final structure:
================
$coord
       -3.77832776478883        1.66484705930402       -0.14777554262122      c
       -5.50846150115640        0.41090631439608        0.17401242436936      o
       -2.04948000882845        2.91950010373699       -0.47224538659657      o
        2.30738471835604        1.37112644512240       18.89730354196094      c
        0.02755232091966        5.42059666900532       18.89724814258032      c
       -2.25362821639816        9.45937610897701       18.89733495034690      c
       -4.52928999120279       13.49908192036175       18.89734723421223      c
       -6.80506575837725       17.55059042999008       18.89726642339555      c
        4.50402998621685        0.08134958860439       18.89746250694790      c
        6.89754701250704        1.35250162036892       18.89727358414886      c
        2.25152929890063        4.08035544780431       18.89709533772297      c
        4.61796570622788        5.39640400064462       18.89694952491765      c
       -0.01569150611224        8.09795527866290       18.89720789934369      c
        2.34187981076396        9.42336447003301       18.89700423418262      c
       -2.28428380941049       12.12140685585533       18.89726773251838      c
        0.06935036267738       13.44916669017416       18.89709951906724      c
       -4.54438846867829       16.14878286145967       18.89727260305756      c
       -2.20365599211293       17.47539678716621       18.89719456254329      c
       -6.76012911543204       20.15879740156040       18.89723186462253      c
       -4.49439682743635       21.46192892504207       18.89729659500521      c
        9.15173927605124        0.06294027161189       18.89732701932873      c
       11.51059853488062        1.33017502101790       18.89726450625511      c
        6.89552284180341        4.05883709624136       18.89706070323560      c
        9.23513349517845        5.37288454532908       18.89714576525699      c
        4.62687178554480        8.07740065183001       18.89700090439900      c
        6.96394018718253        9.39781551455787       18.89715014532213      c
        2.35643465284010       12.09844104802033       18.89707521449411      c
        4.69240091252495       13.41962051252033       18.89718569674422      c
        0.08984721492542       16.12375638713309       18.89716270794497      c
        2.42193590225623       17.44106761654691       18.89721285812178      c
       -2.17909829312837       20.16287967673108       18.89724244981110      c
        0.15447377630176       21.43492435247078       18.89724203288092      c
       13.79174219871322        0.03661649867377       18.89728107501715      c
       16.12531464301697        1.30868756088854       18.89727561053760      c
       11.52424120680428        4.03047320814766       18.89721489041737      c
       13.85633288728743        5.34777766418338       18.89727324395031      c
        9.25377083130140        8.05192055400267       18.89719975282306      c
       11.58973610622255        9.37309942214984       18.89728580592340      c
        6.98222838050941       12.07372762727184       18.89723732160513      c
        9.31929131634653       13.39414327846579       18.89731945511704      c
        4.71104261658004       16.09865049485899       18.89724008205554      c
        7.05064233963093       17.41270963703861       18.89730810585432      c
        2.43560781508726       20.14137303629778       18.89723590661404      c
        4.79445875168228       21.40860474514522       18.89724330170880      c
       18.44060218805808        0.00965265651030       18.89726971605325      c
       20.70631009141175        1.31278599818861       18.89722845649204      c
       16.14984283322353        3.99615619721437       18.89727447502522      c
       18.49055803137854        5.32277389951506       18.89724739358835      c
       13.87682525203754        8.02237124876896       18.89729394472387      c
       16.23045556419042        9.35014298045536       18.89725740861438      c
       11.60428400227432       12.04817543417871       18.89732106963161      c
       13.96184864380440       13.37360521864977       18.89728593711261      c
        9.32820061176555       16.07513654804868       18.89733315424556      c
       11.69461883854801       17.39119977341066       18.89730705880283      c
        7.04862996062040       20.11903619578669       18.89726611469113      c
        9.44213724692358       21.39018897258719       18.89722068880513      c
       20.75122807931918        3.92096862815779       18.89723250953012      c
       18.47546149266944        7.97246918694609       18.89722987048031      c
       16.19980571686780       12.01218548664658       18.89723285572544      c
       13.91860034254147       16.05097628275657       18.89726051712090      c
       11.63877929635903       20.10042195743931       18.89723167050953      c
       -4.48351867390680       23.50337614192549       18.89733748506308      h
        0.16053410645206       23.47805521089851       18.89725808473501      h
        4.79753042987954       23.45218651216607       18.89723407228923      h
        9.43061825528916       23.43299683422684       18.89721168377871      h
        4.51553782067294       -1.96146657814459       18.89759839618818      h
        9.14866594035345       -1.98064387788198       18.89741679767858      h
       13.78566876175372       -2.00656587391143       18.89728696810199      h
       18.42972659618622       -2.03180470601160       18.89729210711277      h
        0.51777437298942        0.38580105369135       18.89740534126880      h
       -1.75559980704225        4.42197537093022       18.89730370353423      h
       -4.03552453197533        8.45938546995385       18.89741940087970      h
       -6.31176824687186       12.50042703305856       18.89741835400265      h
       -8.58518233558915       16.55122168036196       18.89735456015295      h
       22.53134945026803        4.92032289589407       18.89723634532716      h
       20.25791889696142        8.97110078591050       18.89720288070894      h
       17.98168733494909       13.01216588782627       18.89718453958567      h
       15.70173241093653       17.04959048371165       18.89720846100748      h
       13.42842134585131       21.08572297122287       18.89725770674637      h
       -8.51839341959688       21.19797824531268       18.89742054081109      h
       22.46458074529632        0.27358611143656       18.89729967302771      h
$end

 Bond Distances (Angstroems)
 ---------------------------
C1-O2=1.1435         C1-O3=1.1434         O2-C1=1.1435         O3-C1=1.1434         C4-C9=1.3480         C4-C11=1.4340        
C4-H70=1.0811        C5-C11=1.3741        C5-C13=1.4170        C5-H71=1.0815        C6-C13=1.3862        C6-C15=1.4088        
C6-H72=1.0813        C7-C15=1.3939        C7-C17=1.4022        C7-H73=1.0812        C8-C17=1.4076        C8-C19=1.3804        
C8-H74=1.0803        C9-C4=1.3480         C9-C10=1.4341        C9-H66=1.0810        C10-C9=1.4341        C10-C21=1.3743       
C10-C23=1.4321       C11-C4=1.4340        C11-C5=1.3741        C11-C12=1.4329       C12-C11=1.4329       C12-C23=1.3977       
C12-C25=1.4187       C13-C5=1.4170        C13-C6=1.3862        C13-C14=1.4312       C14-C13=1.4312       C14-C25=1.4033       
C14-C27=1.4156       C15-C6=1.4088        C15-C7=1.3939        C15-C16=1.4300       C16-C15=1.4300       C16-C27=1.4056       
C16-C29=1.4154       C17-C7=1.4022        C17-C8=1.4076        C17-C18=1.4238       C18-C17=1.4238       C18-C29=1.4088       
C18-C31=1.4222       C19-C8=1.3804        C19-C20=1.3831       C19-H80=1.0808       C20-C19=1.3831       C20-C31=1.4049       
C20-H62=1.0803       C21-C10=1.3743       C21-C22=1.4170       C21-H67=1.0814       C22-C21=1.4170       C22-C33=1.3877       
C22-C35=1.4290       C23-C10=1.4321       C23-C12=1.3977       C23-C24=1.4200       C24-C23=1.4200       C24-C35=1.4043       
C24-C37=1.4177       C25-C12=1.4187       C25-C14=1.4033       C25-C26=1.4205       C26-C25=1.4205       C26-C37=1.4055       
C26-C39=1.4161       C27-C14=1.4156       C27-C16=1.4056       C27-C28=1.4202       C28-C27=1.4202       C28-C39=1.4055       
C28-C41=1.4177       C29-C16=1.4154       C29-C18=1.4088       C29-C30=1.4174       C30-C29=1.4174       C30-C41=1.4043       
C30-C43=1.4290       C31-C18=1.4222       C31-C20=1.4049       C31-C32=1.4064       C32-C31=1.4064       C32-C43=1.3877       
C32-H63=1.0812       C33-C22=1.3877       C33-C34=1.4064       C33-H68=1.0812       C34-C33=1.4064       C34-C45=1.4049       
C34-C47=1.4222       C35-C22=1.4290       C35-C24=1.4043       C35-C36=1.4174       C36-C35=1.4174       C36-C47=1.4088       
C36-C49=1.4154       C37-C24=1.4177       C37-C26=1.4055       C37-C38=1.4202       C38-C37=1.4202       C38-C49=1.4056       
C38-C51=1.4156       C39-C26=1.4161       C39-C28=1.4055       C39-C40=1.4205       C40-C39=1.4205       C40-C51=1.4033       
C40-C53=1.4187       C41-C28=1.4177       C41-C30=1.4043       C41-C42=1.4200       C42-C41=1.4200       C42-C53=1.3977       
C42-C55=1.4321       C43-C30=1.4290       C43-C32=1.3877       C43-C44=1.4170       C44-C43=1.4170       C44-C55=1.3743       
C44-H64=1.0814       C45-C34=1.4049       C45-C46=1.3831       C45-H69=1.0803       C46-C45=1.3831       C46-C57=1.3804       
C46-H81=1.0808       C47-C34=1.4222       C47-C36=1.4088       C47-C48=1.4238       C48-C47=1.4238       C48-C57=1.4076       
C48-C58=1.4022       C49-C36=1.4154       C49-C38=1.4056       C49-C50=1.4300       C50-C49=1.4300       C50-C58=1.3939       
C50-C59=1.4088       C51-C38=1.4156       C51-C40=1.4033       C51-C52=1.4312       C52-C51=1.4312       C52-C59=1.3862       
C52-C60=1.4170       C53-C40=1.4187       C53-C42=1.3977       C53-C54=1.4329       C54-C53=1.4329       C54-C60=1.3741       
C54-C61=1.4340       C55-C42=1.4321       C55-C44=1.3743       C55-C56=1.4341       C56-C55=1.4341       C56-C61=1.3480       
C56-H65=1.0810       C57-C46=1.3804       C57-C48=1.4076       C57-H75=1.0803       C58-C48=1.4022       C58-C50=1.3939       
C58-H76=1.0812       C59-C50=1.4088       C59-C52=1.3862       C59-H77=1.0813       C60-C52=1.4170       C60-C54=1.3741       
C60-H78=1.0815       C61-C54=1.4340       C61-C56=1.3480       C61-H79=1.0811       H62-C20=1.0803       H63-C32=1.0812       
H64-C44=1.0814       H65-C56=1.0810       H66-C9=1.0810        H67-C21=1.0814       H68-C33=1.0812       H69-C45=1.0803       
H70-C4=1.0811        H71-C5=1.0815        H72-C6=1.0813        H73-C7=1.0812        H74-C8=1.0803        H75-C57=1.0803       
H76-C58=1.0812       H77-C59=1.0813       H78-C60=1.0815       H79-C61=1.0811       H80-C19=1.0808       H81-C46=1.0808       
 C  H  Rav=1.0810 sigma=0.0004  Rmin=1.0803  Rmax=1.0815    20
 C  C  Rav=1.4088 sigma=0.0191  Rmin=1.3480  Rmax=1.4341    77
 O  C  Rav=1.1434 sigma=0.0001  Rmin=1.1434  Rmax=1.1435     2

 selected bond angles (degree)
 --------------------
O3-C1-O2=179.92                C11-C4-C9=121.60               H70-C4-C9=120.74               H70-C4-C11=117.66              
C13-C5-C11=122.00              H71-C5-C11=119.68              H71-C5-C13=118.32              C15-C6-C13=121.97              
H72-C6-C13=119.39              H72-C6-C15=118.64              C17-C7-C15=121.86              H73-C7-C15=119.20              
H73-C7-C17=118.93              C19-C8-C17=120.82              H74-C8-C17=118.89              H74-C8-C19=120.30              
C10-C9-C4=121.61               H66-C9-C4=120.74               H66-C9-C10=117.65              C21-C10-C9=122.26              
C23-C10-C9=117.93              C23-C10-C21=119.82             

 selected dihedral angles (degree)
 ---------------------------------
C10-C9-C4-C11=  0.00          C10-C9-C4-H70=180.00          H66-C9-C4-C11=180.00          H66-C9-C4-H70=  0.00          
C21-C10-C9-C4=180.00          C21-C10-C9-H66=  0.00         C23-C10-C9-C4=  0.00          C23-C10-C9-H66=180.00         

 CMA Distance (Angstroems)
 ---------------------------
R(CMA): 12.5297
           -------------------------------------------------
          |                Final Singlepoint                |
           -------------------------------------------------

          ...................................................
          :                      SETUP                      :
          :.................................................:
          :  # basis functions                 264          :
          :  # atomic orbitals                 264          :
          :  # shells                          142          :
          :  # electrons                       268          :
          :  max. iterations                   250          :
          :  Hamiltonian                  GFN2-xTB          :
          :  restarted?                      false          :
          :  GBSA solvation                  false          :
          :  PC potential                    false          :
          :  electronic temp.          300.0000000     K    :
          :  accuracy                    1.0000000          :
          :  -> integral cutoff          0.2500000E+02      :
          :  -> integral neglect         0.1000000E-07      :
          :  -> SCF convergence          0.1000000E-05 Eh   :
          :  -> wf. convergence          0.1000000E-03 e    :
          :  Broyden damping             0.4000000          :
          :  net charge                          0          :
          :  unpaired electrons                  0          :
          ...................................................

 iter      E             dE          RMSdq      gap      omega  full diag
   1   -147.8171908 -0.147817E+03  0.192E-05    0.31       0.0  T
   2   -147.8171908  0.179995E-09  0.369E-05    0.31     300.9  T
   3   -147.8171908  0.624425E-09  0.714E-05    0.31     155.6  T

   *** convergence criteria satisfied after 3 iterations ***

         #    Occupation            Energy/Eh            Energy/eV
      -------------------------------------------------------------
         1        2.0000           -0.8102223             -22.0473
       ...           ...                  ...                  ...
       128        2.0000           -0.3919788             -10.6663
       129        2.0000           -0.3883812             -10.5684
       130        2.0000           -0.3850517             -10.4778
       131        2.0000           -0.3845634             -10.4645
       132        2.0000           -0.3676795             -10.0051
       133        2.0000           -0.3445298              -9.3751
       134        1.9948           -0.3298269              -8.9750 (HOMO)
       135        0.0052           -0.3185068              -8.6670 (LUMO)
       136                         -0.3023974              -8.2287
       137                         -0.2753624              -7.4930
       138                         -0.2530943              -6.8870
       139                         -0.2518952              -6.8544
       ...                                ...                  ...
       264                          1.3666447              37.1883
      -------------------------------------------------------------
                  HL-Gap            0.0113201 Eh            0.3080 eV
             Fermi-level           -0.3241669 Eh           -8.8210 eV

 SCC (total)                   0 d,  0 h,  0 min,  0.173 sec
 SCC setup                      ...        0 min,  0.000 sec (  0.206%)
 Dispersion                     ...        0 min,  0.001 sec (  0.765%)
 classical contributions        ...        0 min,  0.000 sec (  0.083%)
 integral evaluation            ...        0 min,  0.007 sec (  4.308%)
 iterations                     ...        0 min,  0.120 sec ( 69.324%)
 molecular gradient             ...        0 min,  0.037 sec ( 21.389%)
 printout                       ...        0 min,  0.007 sec (  3.908%)

         :::::::::::::::::::::::::::::::::::::::::::::::::::::
         ::                     SUMMARY                     ::
         :::::::::::::::::::::::::::::::::::::::::::::::::::::
         :: total energy            -145.026502898877 Eh    ::
         :: gradient norm              0.000862883902 Eh/a0 ::
         :: HOMO-LUMO gap              0.308035213961 eV    ::
         ::.................................................::
         :: SCC energy              -147.819608868300 Eh    ::
         :: -> isotropic ES            0.034330053399 Eh    ::
         :: -> anisotropic ES          0.011124799182 Eh    ::
         :: -> anisotropic XC          0.058717491688 Eh    ::
         :: -> dispersion             -0.149222559436 Eh    ::
         :: repulsion energy           2.793105969423 Eh    ::
         :: add. restraining           0.000000000000 Eh    ::
         :: total charge               0.000000000759 e     ::
         :::::::::::::::::::::::::::::::::::::::::::::::::::::


Property printout bound to 'properties.out'

optimized geometry written to: xtbopt.coord


           -------------------------------------------------
          | TOTAL ENERGY             -145.026502898877 Eh   |
          | GRADIENT NORM               0.000862883902 Eh/α |
          | HOMO-LUMO GAP               0.308035213961 eV   |
           -------------------------------------------------

------------------------------------------------------------------------
 * finished run on 2025/01/15 at 17:23:12.665     
------------------------------------------------------------------------
 total:
 * wall-time:     0 d,  0 h,  0 min,  2.990 sec
 *  cpu-time:     0 d,  0 h,  0 min, 10.018 sec
 * ratio c/w:     3.351 speedup
 SCF:
 * wall-time:     0 d,  0 h,  0 min,  0.604 sec
 *  cpu-time:     0 d,  0 h,  0 min,  1.659 sec
 * ratio c/w:     2.746 speedup
 ANC optimizer:
 * wall-time:     0 d,  0 h,  0 min,  2.360 sec
 *  cpu-time:     0 d,  0 h,  0 min,  8.217 sec
 * ratio c/w:     3.482 speedup

