      -----------------------------------------------------------      
     |                   =====================                   |     
     |                           x T B                           |     
     |                   =====================                   |     
     |                         S. Grimme                         |     
     |          Mulliken Center for Theoretical Chemistry        |     
     |                    University of Bonn                     |     
      -----------------------------------------------------------      

   * xtb version 6.5.1 (fef0646) compiled by 'conda@b96dff2e9fd6' on 2023-01-04

   xtb is free software: you can redistribute it and/or modify it under
   the terms of the GNU Lesser General Public License as published by
   the Free Software Foundation, either version 3 of the License, or
   (at your option) any later version.
   
   xtb is distributed in the hope that it will be useful,
   but WITHOUT ANY WARRANTY; without even the implied warranty of
   MERCHANTABILITY or FITNESS FOR A PARTICULAR PURPOSE.  See the
   GNU Lesser General Public License for more details.
   
   Cite this work as:
   * C. Bannwarth, E. Caldeweyher, S. Ehlert, A. Hansen, P. Pracht,
     J. Seibert, S. Spicher, S. Grimme, WIREs Comput. Mol. Sci., 2020, 11,
     e01493. DOI: 10.1002/wcms.1493
   
   for GFN2-xTB:
   * C. Bannwarth, S. Ehlert and S. Grimme., J. Chem. Theory Comput., 2019,
     15, 1652-1671. DOI: 10.1021/acs.jctc.8b01176
   for GFN1-xTB:
   * S. Grimme, C. Bannwarth, P. Shushkov, J. Chem. Theory Comput., 2017,
     13, 1989-2009. DOI: 10.1021/acs.jctc.7b00118
   for GFN0-xTB:
   * P. Pracht, E. Caldeweyher, S. Ehlert, S. Grimme, ChemRxiv, 2019, preprint.
     DOI: 10.26434/chemrxiv.8326202.v1
   for GFN-FF:
   * S. Spicher and S. Grimme, Angew. Chem. Int. Ed., 2020, 59, 15665-15673.
     DOI: 10.1002/anie.202004239
   
   for ALPB and GBSA implicit solvation:
   * S. Ehlert, M. Stahn, S. Spicher, S. Grimme, J. Chem. Theory Comput.,
     2021, 17, 4250-4261. DOI: 10.1021/acs.jctc.1c00471
   
   for DFT-D4:
   * E. Caldeweyher, C. Bannwarth and S. Grimme, J. Chem. Phys., 2017,
     147, 034112. DOI: 10.1063/1.4993215
   * E. Caldeweyher, S. Ehlert, A. Hansen, H. Neugebauer, S. Spicher,
     C. Bannwarth and S. Grimme, J. Chem. Phys., 2019, 150, 154122.
     DOI: 10.1063/1.5090222
   * E. Caldeweyher, J.-M. Mewes, S. Ehlert and S. Grimme, Phys. Chem. Chem. Phys.
     2020, 22, 8499-8512. DOI: 10.1039/D0CP00502A
   
   for sTDA-xTB:
   * S. Grimme and C. Bannwarth, J. Chem. Phys., 2016, 145, 054103.
     DOI: 10.1063/1.4959605
   
   in the mass-spec context:
   * V. Asgeirsson, C. Bauer and S. Grimme, Chem. Sci., 2017, 8, 4879.
     DOI: 10.1039/c7sc00601b
   * J. Koopman and S. Grimme, ACS Omega 2019, 4, 12, 15120-15133.
     DOI: 10.1021/acsomega.9b02011
   
   for metadynamics refer to:
   * S. Grimme, J. Chem. Theory Comput., 2019, 155, 2847-2862
     DOI: 10.1021/acs.jctc.9b00143
   
   for SPH calculations refer to:
   * S. Spicher and S. Grimme, J. Chem. Theory Comput., 2021, 17, 1701-1714
     DOI: 10.1021/acs.jctc.0c01306
   
   with help from (in alphabetical order)
   P. Atkinson, C. Bannwarth, F. Bohle, G. Brandenburg, E. Caldeweyher
   M. Checinski, S. Dohm, S. Ehlert, S. Ehrlich, I. Gerasimov, C. Hölzer
   A. Katbashev, J. Koopman, C. Lavigne, S. Lehtola, F. März, M. Müller,
   F. Musil, H. Neugebauer, J. Pisarek, C. Plett, P. Pracht, F. Pultar,
   J. Seibert, P. Shushkov, S. Spicher, M. Stahn, M. Steiner, T. Strunk,
   J. Stückrath, T. Rose, and J. Unsleber
   
 * started run on 2024/11/21 at 16:53:33.536     

           -------------------------------------------------
          |                Calculation Setup                |
           -------------------------------------------------

          program call               : xtb interaction
          coordinate file            : interaction
          omp threads                :                    24

   ID    Z sym.   atoms
    1    6 c      1, 4-61
    2    8 o      2, 3
    3    1 h      62-81

molecular fragmentation (1/2 indicates fragments):
111222222222222222222222222222222222222222222222222222222222222222222222
222222222
# atoms in fragment 1/2:     3    78
 fragment masses (1/2) :       44.01      716.78
CMA distance (Bohr)    :  23.678
constraining FC (au)   :  0.0500

           -------------------------------------------------
          |                 G F N 2 - x T B                 |
           -------------------------------------------------

        Reference                      10.1021/acs.jctc.8b01176
      * Hamiltonian:
        H0-scaling (s, p, d)           1.850000    2.230000    2.230000
        zeta-weighting                 0.500000
      * Dispersion:
        s8                             2.700000
        a1                             0.520000
        a2                             5.000000
        s9                             5.000000
      * Repulsion:
        kExp                           1.500000    1.000000
        rExp                           1.000000
      * Coulomb:
        alpha                          2.000000
        third order                    shell-resolved
        anisotropic                    true
        a3                             3.000000
        a5                             4.000000
        cn-shift                       1.200000
        cn-exp                         4.000000
        max-rad                        5.000000


          ...................................................
          :                      SETUP                      :
          :.................................................:
          :  # basis functions                 264          :
          :  # atomic orbitals                 264          :
          :  # shells                          142          :
          :  # electrons                       268          :
          :  max. iterations                   250          :
          :  Hamiltonian                  GFN2-xTB          :
          :  restarted?                      false          :
          :  GBSA solvation                  false          :
          :  PC potential                    false          :
          :  electronic temp.          300.0000000     K    :
          :  accuracy                    1.0000000          :
          :  -> integral cutoff          0.2500000E+02      :
          :  -> integral neglect         0.1000000E-07      :
          :  -> SCF convergence          0.1000000E-05 Eh   :
          :  -> wf. convergence          0.1000000E-03 e    :
          :  Broyden damping             0.4000000          :
          ...................................................

 iter      E             dE          RMSdq      gap      omega  full diag
   1   -147.7539900 -0.147754E+03  0.492E+00    0.31       0.0  T
   2   -147.8047232 -0.507333E-01  0.289E+00    0.31       1.0  T
   3   -147.5306932  0.274030E+00  0.146E+00    0.79       1.0  T
   4   -147.3621531  0.168540E+00  0.173E+00    1.28       1.0  T
   5   -147.7916798 -0.429527E+00  0.427E-01    0.33       1.0  T
   6   -147.8094177 -0.177380E-01  0.257E-01    0.32       1.0  T
   7   -147.8171006 -0.768284E-02  0.644E-02    0.31       1.0  T
   8   -147.8170055  0.951002E-04  0.561E-02    0.31       1.0  T
   9   -147.8166478  0.357641E-03  0.737E-02    0.31       1.0  T
  10   -147.8173756 -0.727740E-03  0.161E-02    0.31       1.0  T
  11   -147.8173976 -0.220621E-04  0.330E-03    0.31       3.4  T
  12   -147.8173974  0.205297E-06  0.235E-03    0.31       4.7  T
  13   -147.8173982 -0.777945E-06  0.684E-04    0.31      16.2  T
  14   -147.8173983 -0.410568E-07  0.370E-04    0.31      30.1  T

   *** convergence criteria satisfied after 14 iterations ***

         #    Occupation            Energy/Eh            Energy/eV
      -------------------------------------------------------------
         1        2.0000           -0.8102170             -22.0471
       ...           ...                  ...                  ...
       128        2.0000           -0.3919580             -10.6657
       129        2.0000           -0.3883967             -10.5688
       130        2.0000           -0.3850452             -10.4776
       131        2.0000           -0.3845582             -10.4644
       132        2.0000           -0.3676934             -10.0054
       133        2.0000           -0.3445356              -9.3753
       134        1.9949           -0.3298266              -8.9750 (HOMO)
       135        0.0051           -0.3185001              -8.6668 (LUMO)
       136                         -0.3023857              -8.2283
       137                         -0.2753460              -7.4925
       138                         -0.2530898              -6.8869
       139                         -0.2518978              -6.8545
       ...                                ...                  ...
       264                          1.3664570              37.1832
      -------------------------------------------------------------
                  HL-Gap            0.0113266 Eh            0.3082 eV
             Fermi-level           -0.3241633 Eh           -8.8209 eV

 SCC (total)                   0 d,  0 h,  0 min,  1.304 sec
 SCC setup                      ...        0 min,  0.001 sec (  0.044%)
 Dispersion                     ...        0 min,  0.005 sec (  0.408%)
 classical contributions        ...        0 min,  0.000 sec (  0.015%)
 integral evaluation            ...        0 min,  0.011 sec (  0.857%)
 iterations                     ...        0 min,  1.252 sec ( 95.962%)
 molecular gradient             ...        0 min,  0.034 sec (  2.622%)
 printout                       ...        0 min,  0.001 sec (  0.088%)

         :::::::::::::::::::::::::::::::::::::::::::::::::::::
         ::                     SUMMARY                     ::
         :::::::::::::::::::::::::::::::::::::::::::::::::::::
         :: total energy            -145.026501852873 Eh    ::
         :: gradient norm              0.001021759570 Eh/a0 ::
         :: HOMO-LUMO gap              0.308211953726 eV    ::
         ::.................................................::
         :: SCC energy              -147.817398250708 Eh    ::
         :: -> isotropic ES            0.034331875483 Eh    ::
         :: -> anisotropic ES          0.011126257756 Eh    ::
         :: -> anisotropic XC          0.058717570071 Eh    ::
         :: -> dispersion             -0.149227371708 Eh    ::
         :: repulsion energy           2.793314428639 Eh    ::
         :: add. restraining           0.000000000000 Eh    ::
         :: total charge               0.000000000753 e     ::
         :::::::::::::::::::::::::::::::::::::::::::::::::::::

           -------------------------------------------------
          |                Property Printout                |
           -------------------------------------------------

    * Orbital Energies and Occupations

         #    Occupation            Energy/Eh            Energy/eV
      -------------------------------------------------------------
         1        2.0000           -0.8102170             -22.0471
       ...           ...                  ...                  ...
       122        2.0000           -0.4075934             -11.0912
       123        2.0000           -0.4060539             -11.0493
       124        2.0000           -0.4019418             -10.9374
       125        2.0000           -0.4006890             -10.9033
       126        2.0000           -0.3957270             -10.7683
       127        2.0000           -0.3943130             -10.7298
       128        2.0000           -0.3919580             -10.6657
       129        2.0000           -0.3883967             -10.5688
       130        2.0000           -0.3850452             -10.4776
       131        2.0000           -0.3845582             -10.4644
       132        2.0000           -0.3676934             -10.0054
       133        2.0000           -0.3445356              -9.3753
       134        1.9949           -0.3298266              -8.9750 (HOMO)
       135        0.0051           -0.3185001              -8.6668 (LUMO)
       136                         -0.3023857              -8.2283
       137                         -0.2753460              -7.4925
       138                         -0.2530898              -6.8869
       139                         -0.2518978              -6.8545
       140                         -0.2406235              -6.5477
       141                         -0.2371026              -6.4519
       142                         -0.2306687              -6.2768
       143                         -0.2232314              -6.0744
       144                         -0.2231350              -6.0718
       145                         -0.2231335              -6.0718
       ...                                ...                  ...
       264                          1.3664570              37.1832
      -------------------------------------------------------------
                  HL-Gap            0.0113266 Eh            0.3082 eV
             Fermi-level           -0.3241633 Eh           -8.8209 eV

     #   Z          covCN         q      C6AA      α(0)
     1   6 c        1.711     0.464    21.599     7.524
     2   8 o        0.856    -0.232    18.604     5.783
     3   8 o        0.856    -0.232    18.596     5.782
     4   6 c        2.912    -0.035    28.876     8.812
     5   6 c        2.921    -0.044    29.082     8.844
     6   6 c        2.922    -0.044    29.102     8.847
     7   6 c        2.922    -0.045    29.109     8.848
     8   6 c        2.919    -0.037    28.922     8.819
     9   6 c        2.912    -0.035    28.876     8.812
    10   6 c        2.975     0.012    27.752     8.641
    11   6 c        2.975     0.012    27.750     8.641
    12   6 c        2.992     0.001    27.988     8.678
    13   6 c        2.973     0.011    27.760     8.642
    14   6 c        2.993    -0.000    28.022     8.684
    15   6 c        2.973     0.011    27.756     8.642
    16   6 c        2.994    -0.000    28.028     8.684
    17   6 c        2.976     0.013    27.725     8.637
    18   6 c        2.998     0.001    27.988     8.678
    19   6 c        2.910    -0.029    28.713     8.787
    20   6 c        2.920    -0.037    28.921     8.819
    21   6 c        2.921    -0.043    29.077     8.843
    22   6 c        2.973     0.011    27.765     8.643
    23   6 c        2.992     0.001    27.987     8.678
    24   6 c        2.989     0.000    28.018     8.683
    25   6 c        2.989     0.000    28.019     8.683
    26   6 c        2.991    -0.001    28.043     8.687
    27   6 c        2.989     0.000    28.009     8.681
    28   6 c        2.991    -0.001    28.053     8.688
    29   6 c        2.988     0.002    27.984     8.678
    30   6 c        2.994    -0.001    28.031     8.685
    31   6 c        2.976     0.013    27.729     8.638
    32   6 c        2.922    -0.044    29.095     8.846
    33   6 c        2.922    -0.044    29.095     8.845
    34   6 c        2.976     0.013    27.729     8.638
    35   6 c        2.994    -0.001    28.031     8.685
    36   6 c        2.988     0.002    27.984     8.677
    37   6 c        2.991    -0.001    28.053     8.688
    38   6 c        2.989     0.001    28.008     8.681
    39   6 c        2.991    -0.001    28.043     8.687
    40   6 c        2.989     0.000    28.018     8.683
    41   6 c        2.989     0.000    28.017     8.683
    42   6 c        2.992     0.001    27.986     8.678
    43   6 c        2.973     0.011    27.765     8.643
    44   6 c        2.921    -0.043    29.077     8.843
    45   6 c        2.920    -0.037    28.920     8.819
    46   6 c        2.910    -0.029    28.713     8.787
    47   6 c        2.998     0.001    27.988     8.678
    48   6 c        2.976     0.013    27.724     8.637
    49   6 c        2.994    -0.000    28.028     8.684
    50   6 c        2.973     0.011    27.755     8.642
    51   6 c        2.993    -0.000    28.022     8.683
    52   6 c        2.973     0.011    27.758     8.642
    53   6 c        2.992     0.001    27.987     8.678
    54   6 c        2.975     0.012    27.749     8.641
    55   6 c        2.975     0.012    27.751     8.641
    56   6 c        2.912    -0.035    28.875     8.811
    57   6 c        2.919    -0.037    28.921     8.819
    58   6 c        2.922    -0.045    29.107     8.847
    59   6 c        2.922    -0.044    29.100     8.846
    60   6 c        2.921    -0.044    29.081     8.843
    61   6 c        2.912    -0.035    28.874     8.811
    62   1 h        0.926     0.030     2.580     2.512
    63   1 h        0.926     0.031     2.567     2.506
    64   1 h        0.925     0.031     2.568     2.506
    65   1 h        0.926     0.031     2.577     2.510
    66   1 h        0.926     0.031     2.577     2.511
    67   1 h        0.925     0.031     2.569     2.506
    68   1 h        0.926     0.031     2.568     2.506
    69   1 h        0.926     0.030     2.580     2.512
    70   1 h        0.926     0.031     2.578     2.511
    71   1 h        0.925     0.031     2.571     2.508
    72   1 h        0.925     0.031     2.571     2.507
    73   1 h        0.925     0.031     2.570     2.507
    74   1 h        0.926     0.030     2.581     2.512
    75   1 h        0.926     0.030     2.580     2.512
    76   1 h        0.925     0.031     2.568     2.506
    77   1 h        0.925     0.031     2.569     2.506
    78   1 h        0.925     0.031     2.569     2.506
    79   1 h        0.926     0.031     2.577     2.510
    80   1 h        0.926     0.029     2.594     2.519
    81   1 h        0.926     0.029     2.594     2.519

 Mol. C6AA /au·bohr⁶  :     125057.004168
 Mol. C8AA /au·bohr⁸  :    3361116.504254
 Mol. α(0) /au        :        575.166054


Wiberg/Mayer (AO) data.
largest (>0.10) Wiberg bond orders for each atom

 ---------------------------------------------------------------------------
     #   Z sym  total        # sym  WBO       # sym  WBO       # sym  WBO
 ---------------------------------------------------------------------------
     1   6 c    3.936 --     3 o    1.968     2 o    1.968
     2   8 o    2.370 --     1 c    1.968     3 o    0.402
     3   8 o    2.370 --     1 c    1.968     2 o    0.402
     4   6 c    3.971 --     9 c    1.695    11 c    1.166    70 h    0.967
     5   6 c    3.881 --    11 c    1.485    13 c    1.240    71 h    0.966
     6   6 c    3.821 --    13 c    1.407    15 c    1.281    72 h    0.967
     7   6 c    3.802 --    15 c    1.360    17 c    1.315    73 h    0.967
     8   6 c    3.843 --    19 c    1.455    17 c    1.290    74 h    0.970
     9   6 c    3.970 --     4 c    1.695    10 c    1.165    66 h    0.967
    10   6 c    3.980 --    21 c    1.483    23 c    1.176     9 c    1.165
    11   6 c    3.977 --     5 c    1.485    12 c    1.173     4 c    1.166
    12   6 c    3.951 --    23 c    1.338    25 c    1.230    11 c    1.173
    13   6 c    3.981 --     6 c    1.407     5 c    1.240    14 c    1.180
    14   6 c    3.948 --    25 c    1.304    27 c    1.244    13 c    1.180
    15   6 c    3.985 --     7 c    1.360     6 c    1.281    16 c    1.186
    16   6 c    3.945 --    27 c    1.292    29 c    1.247    15 c    1.186
    17   6 c    3.986 --     7 c    1.315     8 c    1.290    18 c    1.219
    18   6 c    3.947 --    29 c    1.280    31 c    1.226    17 c    1.219
    19   6 c    3.985 --     8 c    1.455    20 c    1.438    80 h    0.970
    20   6 c    3.838 --    19 c    1.438    31 c    1.304    62 h    0.970
    21   6 c    3.876 --    10 c    1.483    22 c    1.240    67 h    0.966
    22   6 c    3.986 --    33 c    1.396    21 c    1.240    35 c    1.190
    23   6 c    3.945 --    12 c    1.338    24 c    1.225    10 c    1.176
    24   6 c    3.976 --    35 c    1.299    37 c    1.232    23 c    1.225
    25   6 c    3.968 --    14 c    1.304    12 c    1.230    26 c    1.220
    26   6 c    3.974 --    37 c    1.289    39 c    1.238    25 c    1.220
    27   6 c    3.980 --    16 c    1.292    14 c    1.244    28 c    1.222
    28   6 c    3.964 --    39 c    1.289    41 c    1.232    27 c    1.222
    29   6 c    3.986 --    18 c    1.280    16 c    1.247    30 c    1.239
    30   6 c    3.945 --    41 c    1.299    29 c    1.239    43 c    1.190
    31   6 c    3.986 --    20 c    1.304    32 c    1.293    18 c    1.226
    32   6 c    3.820 --    43 c    1.396    31 c    1.293    63 h    0.967
    33   6 c    3.820 --    22 c    1.396    34 c    1.293    68 h    0.967
    34   6 c    3.986 --    45 c    1.304    33 c    1.293    47 c    1.226
    35   6 c    3.945 --    24 c    1.299    36 c    1.239    22 c    1.190
    36   6 c    3.986 --    47 c    1.280    49 c    1.247    35 c    1.239
    37   6 c    3.964 --    26 c    1.289    24 c    1.232    38 c    1.222
    38   6 c    3.980 --    49 c    1.292    51 c    1.244    37 c    1.222
    39   6 c    3.974 --    28 c    1.289    26 c    1.238    40 c    1.220
    40   6 c    3.968 --    51 c    1.304    53 c    1.230    39 c    1.220
    41   6 c    3.976 --    30 c    1.299    28 c    1.232    42 c    1.225
    42   6 c    3.945 --    53 c    1.338    41 c    1.225    55 c    1.176
    43   6 c    3.986 --    32 c    1.396    44 c    1.240    30 c    1.190
    44   6 c    3.876 --    55 c    1.483    43 c    1.240    64 h    0.966
    45   6 c    3.838 --    46 c    1.438    34 c    1.304    69 h    0.970
    46   6 c    3.985 --    57 c    1.455    45 c    1.438    81 h    0.970
    47   6 c    3.947 --    36 c    1.280    34 c    1.226    48 c    1.219
    48   6 c    3.986 --    58 c    1.315    57 c    1.290    47 c    1.219
    49   6 c    3.945 --    38 c    1.292    36 c    1.247    50 c    1.186
    50   6 c    3.985 --    58 c    1.360    59 c    1.281    49 c    1.186
    51   6 c    3.948 --    40 c    1.304    38 c    1.244    52 c    1.180
    52   6 c    3.981 --    59 c    1.407    60 c    1.240    51 c    1.180
    53   6 c    3.951 --    42 c    1.338    40 c    1.230    54 c    1.173
    54   6 c    3.977 --    60 c    1.485    53 c    1.173    61 c    1.166
    55   6 c    3.980 --    44 c    1.483    42 c    1.176    56 c    1.165
    56   6 c    3.970 --    61 c    1.695    55 c    1.165    65 h    0.967
    57   6 c    3.843 --    46 c    1.455    48 c    1.290    75 h    0.970
    58   6 c    3.802 --    50 c    1.360    48 c    1.315    76 h    0.967
    59   6 c    3.821 --    52 c    1.407    50 c    1.281    77 h    0.967
    60   6 c    3.881 --    54 c    1.485    52 c    1.240    78 h    0.966
    61   6 c    3.971 --    56 c    1.695    54 c    1.166    79 h    0.967
    62   1 h    0.998 --    20 c    0.970
    63   1 h    0.998 --    32 c    0.967
    64   1 h    0.998 --    44 c    0.966
    65   1 h    0.998 --    56 c    0.967
    66   1 h    0.998 --     9 c    0.967
    67   1 h    0.998 --    21 c    0.966
    68   1 h    0.998 --    33 c    0.967
    69   1 h    0.998 --    45 c    0.970
    70   1 h    0.998 --     4 c    0.967
    71   1 h    0.998 --     5 c    0.966
    72   1 h    0.998 --     6 c    0.967
    73   1 h    0.998 --     7 c    0.967
    74   1 h    0.998 --     8 c    0.970
    75   1 h    0.998 --    57 c    0.970
    76   1 h    0.998 --    58 c    0.967
    77   1 h    0.998 --    59 c    0.967
    78   1 h    0.998 --    60 c    0.966
    79   1 h    0.998 --    61 c    0.967
    80   1 h    0.998 --    19 c    0.970
    81   1 h    0.998 --    46 c    0.970
 ---------------------------------------------------------------------------

Topologies differ in total number of bonds
Writing topology from bond orders to xtbtopo.mol

molecular dipole:
                 x           y           z       tot (Debye)
 q only:        0.013       0.006       0.000
   full:        0.012       0.006       0.000       0.035
molecular quadrupole (traceless):
                xx          xy          yy          xz          yz          zz
 q only:        4.547      -1.326       6.492       0.737       0.429     -11.039
  q+dip:       20.626      -2.930      21.970       0.868       0.520     -42.596
   full:        8.039      -2.973      10.810       1.093       0.683     -18.850


           -------------------------------------------------
          | TOTAL ENERGY             -145.026501852873 Eh   |
          | GRADIENT NORM               0.001021759570 Eh/α |
          | HOMO-LUMO GAP               0.308211953726 eV   |
           -------------------------------------------------

------------------------------------------------------------------------
 * finished run on 2024/11/21 at 16:53:34.875     
------------------------------------------------------------------------
 total:
 * wall-time:     0 d,  0 h,  0 min,  1.339 sec
 *  cpu-time:     0 d,  0 h,  0 min, 31.878 sec
 * ratio c/w:    23.800 speedup
 SCF:
 * wall-time:     0 d,  0 h,  0 min,  1.305 sec
 *  cpu-time:     0 d,  0 h,  0 min, 31.072 sec
 * ratio c/w:    23.808 speedup

