      -----------------------------------------------------------      
     |                   =====================                   |     
     |                           x T B                           |     
     |                   =====================                   |     
     |                         S. Grimme                         |     
     |          Mulliken Center for Theoretical Chemistry        |     
     |                    University of Bonn                     |     
      -----------------------------------------------------------      

   * xtb version 6.7.1 (edcfbbe) compiled by 'conda@3ef47c1a292c' on 2024-11-25

   xtb is free software: you can redistribute it and/or modify it under
   the terms of the GNU Lesser General Public License as published by
   the Free Software Foundation, either version 3 of the License, or
   (at your option) any later version.
   
   xtb is distributed in the hope that it will be useful,
   but WITHOUT ANY WARRANTY; without even the implied warranty of
   MERCHANTABILITY or FITNESS FOR A PARTICULAR PURPOSE.  See the
   GNU Lesser General Public License for more details.
   
   Cite this work as:
   * C. Bannwarth, E. Caldeweyher, S. Ehlert, A. Hansen, P. Pracht,
     J. Seibert, S. Spicher, S. Grimme, WIREs Comput. Mol. Sci., 2020, 11,
     e01493. DOI: 10.1002/wcms.1493
   
   for GFN2-xTB:
   * C. Bannwarth, S. Ehlert and S. Grimme., J. Chem. Theory Comput., 2019,
     15, 1652-1671. DOI: 10.1021/acs.jctc.8b01176
   for GFN1-xTB:
   * S. Grimme, C. Bannwarth, P. Shushkov, J. Chem. Theory Comput., 2017,
     13, 1989-2009. DOI: 10.1021/acs.jctc.7b00118
   for GFN0-xTB:
   * P. Pracht, E. Caldeweyher, S. Ehlert, S. Grimme, ChemRxiv, 2019, preprint.
     DOI: 10.26434/chemrxiv.8326202.v1
   for GFN-FF:
   * S. Spicher and S. Grimme, Angew. Chem. Int. Ed., 2020, 59, 15665-15673.
     DOI: 10.1002/anie.202004239
   
   for ALPB and GBSA implicit solvation:
   * S. Ehlert, M. Stahn, S. Spicher, S. Grimme, J. Chem. Theory Comput.,
     2021, 17, 4250-4261. DOI: 10.1021/acs.jctc.1c00471
   
   for ddCOSMO and CPCM-X implicit solvation:
   * M. Stahn, S. Ehlert, S. Grimme, J. Phys. Chem. A,
     2023, XX, XXXX-XXXX. DOI: 10.1021/acs.jpca.3c04382
   
   for DFT-D4:
   * E. Caldeweyher, C. Bannwarth and S. Grimme, J. Chem. Phys., 2017,
     147, 034112. DOI: 10.1063/1.4993215
   * E. Caldeweyher, S. Ehlert, A. Hansen, H. Neugebauer, S. Spicher,
     C. Bannwarth and S. Grimme, J. Chem. Phys., 2019, 150, 154122.
     DOI: 10.1063/1.5090222
   * E. Caldeweyher, J.-M. Mewes, S. Ehlert and S. Grimme, Phys. Chem. Chem. Phys.
     2020, 22, 8499-8512. DOI: 10.1039/D0CP00502A
   
   for sTDA-xTB:
   * S. Grimme and C. Bannwarth, J. Chem. Phys., 2016, 145, 054103.
     DOI: 10.1063/1.4959605
   
   in the mass-spec context:
   * V. Asgeirsson, C. Bauer and S. Grimme, Chem. Sci., 2017, 8, 4879.
     DOI: 10.1039/c7sc00601b
   * J. Koopman and S. Grimme, ACS Omega 2019, 4, 12, 15120-15133.
     DOI: 10.1021/acsomega.9b02011
   
   for metadynamics refer to:
   * S. Grimme, J. Chem. Theory Comput., 2019, 155, 2847-2862
     DOI: 10.1021/acs.jctc.9b00143
   
   for SPH calculations refer to:
   * S. Spicher and S. Grimme, J. Chem. Theory Comput., 2021, 17, 1701-1714
     DOI: 10.1021/acs.jctc.0c01306
   
   for ONIOM refer to:
   * C. Plett, A. Katbashev, S. Ehlert, S. Grimme, M. Bursch,
     Phys. Chem. Chem. Phys., 2023, 25, 17860-17868. DOI: 10.1039/D3CP02178E
   
   for DIPRO refer to:
   * J. Kohn, N. Gildemeister, S. Grimme, D. Fazzi, A. Hansen,
     J. Chem. Phys., 2023, just accepted.
   
   for PTB refer to:
   * S. Grimme, M. Mueller, A. Hansen, J. Chem. Phys., 2023, 158, 124111.
     DOI: 10.1063/5.0137838
   
   with help from (in alphabetical order)
   P. Atkinson, C. Bannwarth, F. Bohle, G. Brandenburg, E. Caldeweyher
   M. Checinski, S. Dohm, S. Ehlert, S. Ehrlich, I. Gerasimov, C. Hölzer
   A. Katbashev, J. Kohn, J. Koopman, C. Lavigne, S. Lehtola, F. März, M. Müller,
   F. Musil, H. Neugebauer, J. Pisarek, C. Plett, P. Pracht, F. Pultar,
   J. Seibert, P. Shushkov, S. Spicher, M. Stahn, M. Steiner, T. Strunk,
   J. Stückrath, T. Rose, and J. Unsleber
   
 * started run on 2024/12/05 at 16:17:37.066     
   ID    Z sym.   atoms
    1    6 c      1, 4-61
    2    8 o      2, 3
    3    1 h      62-81

           -------------------------------------------------
          |                Calculation Setup                |
           -------------------------------------------------

          program call               : xtb interaction --opt
          coordinate file            : interaction
          omp threads                :                    16


molecular fragmentation (1/2 indicates fragments):
111222222222222222222222222222222222222222222222222222222222222222222222
222222222
# atoms in fragment 1/2:     3    78
 fragment masses (1/2) :       44.01      716.78
CMA distance (Bohr)    :  23.678
constraining FC (au)   :  0.0500

           -------------------------------------------------
          |                 G F N 2 - x T B                 |
           -------------------------------------------------

        Reference                      10.1021/acs.jctc.8b01176
      * Hamiltonian:
        H0-scaling (s, p, d)           1.850000    2.230000    2.230000
        zeta-weighting                 0.500000
      * Dispersion:
        s8                             2.700000
        a1                             0.520000
        a2                             5.000000
        s9                             5.000000
      * Repulsion:
        kExp                           1.500000    1.000000
        rExp                           1.000000
      * Coulomb:
        alpha                          2.000000
        third order                    shell-resolved
        anisotropic                    true
        a3                             3.000000
        a5                             4.000000
        cn-shift                       1.200000
        cn-exp                         4.000000
        max-rad                        5.000000


          ...................................................
          :                      SETUP                      :
          :.................................................:
          :  # basis functions                 264          :
          :  # atomic orbitals                 264          :
          :  # shells                          142          :
          :  # electrons                       268          :
          :  max. iterations                   250          :
          :  Hamiltonian                  GFN2-xTB          :
          :  restarted?                      false          :
          :  GBSA solvation                  false          :
          :  PC potential                    false          :
          :  electronic temp.          300.0000000     K    :
          :  accuracy                    1.0000000          :
          :  -> integral cutoff          0.2500000E+02      :
          :  -> integral neglect         0.1000000E-07      :
          :  -> SCF convergence          0.1000000E-05 Eh   :
          :  -> wf. convergence          0.1000000E-03 e    :
          :  Broyden damping             0.4000000          :
          :  net charge                          0          :
          :  unpaired electrons                  0          :
          ...................................................

 iter      E             dE          RMSdq      gap      omega  full diag
   1   -147.7539900 -0.147754E+03  0.492E+00    0.31       0.0  T
   2   -147.8047232 -0.507333E-01  0.289E+00    0.31       1.0  T
   3   -147.5306932  0.274030E+00  0.146E+00    0.79       1.0  T
   4   -147.3621531  0.168540E+00  0.173E+00    1.28       1.0  T
   5   -147.7916798 -0.429527E+00  0.427E-01    0.33       1.0  T
   6   -147.8094177 -0.177380E-01  0.257E-01    0.32       1.0  T
   7   -147.8171006 -0.768284E-02  0.644E-02    0.31       1.0  T
   8   -147.8170055  0.951002E-04  0.561E-02    0.31       1.0  T
   9   -147.8166478  0.357641E-03  0.737E-02    0.31       1.0  T
  10   -147.8173756 -0.727740E-03  0.161E-02    0.31       1.0  T
  11   -147.8173976 -0.220621E-04  0.330E-03    0.31       3.4  T
  12   -147.8173974  0.205297E-06  0.235E-03    0.31       4.7  T
  13   -147.8173982 -0.777945E-06  0.684E-04    0.31      16.2  T
  14   -147.8173983 -0.410566E-07  0.370E-04    0.31      30.1  T

   *** convergence criteria satisfied after 14 iterations ***

         #    Occupation            Energy/Eh            Energy/eV
      -------------------------------------------------------------
         1        2.0000           -0.8102170             -22.0471
       ...           ...                  ...                  ...
       128        2.0000           -0.3919580             -10.6657
       129        2.0000           -0.3883967             -10.5688
       130        2.0000           -0.3850452             -10.4776
       131        2.0000           -0.3845582             -10.4644
       132        2.0000           -0.3676934             -10.0054
       133        2.0000           -0.3445356              -9.3753
       134        1.9949           -0.3298266              -8.9750 (HOMO)
       135        0.0051           -0.3185001              -8.6668 (LUMO)
       136                         -0.3023857              -8.2283
       137                         -0.2753460              -7.4925
       138                         -0.2530898              -6.8869
       139                         -0.2518978              -6.8545
       ...                                ...                  ...
       264                          1.3664570              37.1832
      -------------------------------------------------------------
                  HL-Gap            0.0113266 Eh            0.3082 eV
             Fermi-level           -0.3241633 Eh           -8.8209 eV

 SCC (total)                   0 d,  0 h,  0 min,  0.628 sec
 SCC setup                      ...        0 min,  0.000 sec (  0.075%)
 Dispersion                     ...        0 min,  0.003 sec (  0.555%)
 classical contributions        ...        0 min,  0.000 sec (  0.044%)
 integral evaluation            ...        0 min,  0.011 sec (  1.822%)
 iterations                     ...        0 min,  0.571 sec ( 90.903%)
 molecular gradient             ...        0 min,  0.036 sec (  5.661%)
 printout                       ...        0 min,  0.006 sec (  0.936%)

         :::::::::::::::::::::::::::::::::::::::::::::::::::::
         ::                     SUMMARY                     ::
         :::::::::::::::::::::::::::::::::::::::::::::::::::::
         :: total energy            -145.026501852873 Eh    ::
         :: gradient norm              0.001021759570 Eh/a0 ::
         :: HOMO-LUMO gap              0.308211953726 eV    ::
         ::.................................................::
         :: SCC energy              -147.819816281512 Eh    ::
         :: -> isotropic ES            0.034331875483 Eh    ::
         :: -> anisotropic ES          0.011126257756 Eh    ::
         :: -> anisotropic XC          0.058717570071 Eh    ::
         :: -> dispersion             -0.149227371708 Eh    ::
         :: repulsion energy           2.793314428639 Eh    ::
         :: add. restraining           0.000000000000 Eh    ::
         :: total charge               0.000000000753 e     ::
         :::::::::::::::::::::::::::::::::::::::::::::::::::::

      ----------------------------------------------------------- 
     |                   =====================                   |
     |                        A N C O P T                        |
     |                   =====================                   |
     |               Approximate Normal Coordinate               |
     |                Rational Function Optimizer                |
      ----------------------------------------------------------- 
      ----------------------------------------------------------- 
     |                   =====================                   |
     |                        A N C O P T                        |
     |                   =====================                   |
     |               Approximate Normal Coordinate               |
     |                Rational Function Optimizer                |
      ----------------------------------------------------------- 

          ...................................................
          :                      SETUP                      :
          :.................................................:
          :   optimization level            normal          :
          :   max. optcycles                   243          :
          :   ANC micro-cycles                  20          :
          :   degrees of freedom               237          :
          :.................................................:
          :   RF solver                   davidson          :
          :   write xtbopt.log                true          :
          :   linear?                        false          :
          :   energy convergence         0.5000000E-05 Eh   :
          :   grad. convergence          0.1000000E-02 Eh/α :
          :   maxmium RF displ.          1.0000000          :
          :   Hlow (freq-cutoff)         0.1000000E-01      :
          :   Hmax (freq-cutoff)         5.0000000          :
          :   S6 in model hess.         20.0000000          :
          ...................................................

generating ANC from exact Hessian ...
Using Lindh-Hessian (1995)
 Shifting diagonal of input Hessian by    9.9927125535057316E-003
 Lowest  eigenvalues of input Hessian
    0.000000    0.000000    0.000000    0.000000    0.000000    0.000000
    0.010000    0.010013    0.010029    0.010064    0.010251    0.010433
    0.010434    0.010704    0.011196    0.011440    0.011969    0.013704
 Highest eigenvalues
    2.128071    2.173756    2.187408    2.187424    2.238027    3.268726


........................................................................
.............................. CYCLE    1 ..............................
........................................................................

 iter      E             dE          RMSdq      gap      omega  full diag
   1   -147.8173983 -0.147817E+03  0.265E-04    0.31       0.0  T
   2   -147.8173972  0.103906E-05  0.251E-03    0.31       4.4  T
   3   -147.8173983 -0.104904E-05  0.748E-05    0.31     148.5  T
   4   -147.8173983 -0.454065E-09  0.478E-05    0.31     232.4  T
   5   -147.8173983 -0.776481E-10  0.380E-05    0.31     292.7  T
     SCC iter.                  ...        0 min,  0.207 sec
     gradient                   ...        0 min,  0.037 sec
 * total energy  :  -145.0265019 Eh     change       -0.1737757E-07 Eh
   gradient norm :     0.0010218 Eh/α   predicted     0.0000000E+00 (-100.00%)
   displ. norm   :     0.0080493 α      lambda       -0.1693307E-05
   maximum displ.:     0.0053167 α      in ANC's #1, #29, #25, ...

........................................................................
.............................. CYCLE    2 ..............................
........................................................................

 iter      E             dE          RMSdq      gap      omega  full diag
   1   -147.8170895 -0.147817E+03  0.433E-03    0.31       0.0  T
   2   -147.8170892  0.347071E-06  0.301E-03    0.31       3.7  T
   3   -147.8170233  0.658200E-04  0.200E-02    0.31       1.0  T
   4   -147.8170895 -0.661370E-04  0.759E-04    0.31      14.6  T
   5   -147.8170895 -0.166792E-07  0.617E-04    0.31      18.0  T
   6   -147.8170895 -0.397139E-07  0.120E-04    0.31      92.3  T
     SCC iter.                  ...        0 min,  0.247 sec
     gradient                   ...        0 min,  0.036 sec
 * total energy  :  -145.0265008 Eh     change        0.1096271E-05 Eh
   gradient norm :     0.0010570 Eh/α   predicted    -0.9071242E-06 (-182.75%)
   displ. norm   :     0.0389024 α      lambda       -0.1202218E-04
   maximum displ.:     0.0198277 α      in ANC's #1, #29, #25, ...

........................................................................
.............................. CYCLE    3 ..............................
........................................................................

 iter      E             dE          RMSdq      gap      omega  full diag
   1   -147.8154027 -0.147815E+03  0.191E-02    0.31       0.0  T
   2   -147.8154025  0.135067E-06  0.116E-02    0.31       1.0  T
   3   -147.8151103  0.292203E-03  0.420E-02    0.31       1.0  T
   4   -147.8153941 -0.283807E-03  0.774E-03    0.31       1.4  T
   5   -147.8154027 -0.860059E-05  0.226E-03    0.31       4.9  T
   6   -147.8154032 -0.514571E-06  0.675E-04    0.31      16.5  T
   7   -147.8154033 -0.232925E-07  0.316E-04    0.31      35.1  T
     SCC iter.                  ...        0 min,  0.280 sec
     gradient                   ...        0 min,  0.035 sec
 * total energy  :  -145.0264459 Eh     change        0.5488501E-04 Eh
   gradient norm :     0.0077997 Eh/α   predicted    -0.6019455E-05 (-110.97%)
   displ. norm   :     0.0231843 α      lambda       -0.7659211E-04
   maximum displ.:     0.0118525 α      in ANC's #29, #25, #1, ...

........................................................................
.............................. CYCLE    4 ..............................
........................................................................

 iter      E             dE          RMSdq      gap      omega  full diag
   1   -147.8166273 -0.147817E+03  0.111E-02    0.31       0.0  T
   2   -147.8166272  0.541413E-07  0.675E-03    0.31       1.6  T
   3   -147.8165081  0.119132E-03  0.268E-02    0.31       1.0  T
   4   -147.8166236 -0.115491E-03  0.519E-03    0.31       2.1  T
   5   -147.8166273 -0.375482E-05  0.151E-03    0.31       7.4  T
   6   -147.8166276 -0.232017E-06  0.476E-04    0.31      23.3  T
   7   -147.8166276 -0.133784E-07  0.226E-04    0.31      49.3  T
     SCC iter.                  ...        0 min,  0.286 sec
     gradient                   ...        0 min,  0.037 sec
 * total energy  :  -145.0264971 Eh     change       -0.5123900E-04 Eh
   gradient norm :     0.0024174 Eh/α   predicted    -0.3871346E-04 ( -24.45%)
   displ. norm   :     0.0114795 α      lambda       -0.1214884E-04
   maximum displ.:     0.0058000 α      in ANC's #29, #1, #25, ...

........................................................................
.............................. CYCLE    5 ..............................
........................................................................

 iter      E             dE          RMSdq      gap      omega  full diag
   1   -147.8171252 -0.147817E+03  0.547E-03    0.31       0.0  T
   2   -147.8171252 -0.382202E-07  0.329E-03    0.31       3.4  T
   3   -147.8171223  0.289010E-05  0.433E-03    0.31       2.6  T
   4   -147.8171181  0.425787E-05  0.660E-03    0.31       1.7  T
   5   -147.8171251 -0.700501E-05  0.120E-03    0.31       9.2  T
   6   -147.8171252 -0.164698E-06  0.211E-04    0.31      52.8  T
   7   -147.8171252 -0.200302E-08  0.115E-04    0.31      96.6  T
     SCC iter.                  ...        0 min,  0.282 sec
     gradient                   ...        0 min,  0.037 sec
 * total energy  :  -145.0265033 Eh     change       -0.6197277E-05 Eh
   gradient norm :     0.0000643 Eh/α   predicted    -0.6136159E-05 (  -0.99%)
   displ. norm   :     0.0054516 α      lambda        0.4560490E-05
   maximum displ.:     0.0029556 α      in ANC's #1, #29, #175, ...

........................................................................
.............................. CYCLE    6 ..............................
........................................................................

 iter      E             dE          RMSdq      gap      omega  full diag
   1   -147.8173331 -0.147817E+03  0.360E-03    0.31       0.0  T
   2   -147.8173330  0.415131E-07  0.229E-03    0.31       4.8  T
   3   -147.8173118  0.211883E-04  0.113E-02    0.31       1.0  T
   4   -147.8173326 -0.207709E-04  0.198E-03    0.31       5.6  T
   5   -147.8173330 -0.452252E-06  0.880E-04    0.31      12.6  T
   6   -147.8173331 -0.787923E-07  0.211E-04    0.31      52.6  T
     SCC iter.                  ...        0 min,  0.242 sec
     gradient                   ...        0 min,  0.036 sec
 * total energy  :  -145.0264994 Eh     change        0.3879903E-05 Eh
   gradient norm :     0.0026110 Eh/α   predicted     0.2176809E-05 ( -43.90%)
   displ. norm   :     0.0036226 α      lambda       -0.5132836E-05
   maximum displ.:     0.0018106 α      in ANC's #1, #29, #175, ...

........................................................................
.............................. CYCLE    7 ..............................
........................................................................

 iter      E             dE          RMSdq      gap      omega  full diag
   1   -147.8171908 -0.147817E+03  0.237E-03    0.31       0.0  T
   2   -147.8171908 -0.251657E-07  0.142E-03    0.31       7.8  T
   3   -147.8171901  0.701681E-06  0.214E-03    0.31       5.2  T
   4   -147.8171881  0.201151E-05  0.406E-03    0.31       2.7  T
   5   -147.8171908 -0.270131E-05  0.424E-04    0.31      26.2  T
   6   -147.8171908 -0.190225E-07  0.107E-04    0.31     103.4  T
   7   -147.8171908 -0.796547E-09  0.453E-05    0.31     245.2  T
     SCC iter.                  ...        0 min,  0.282 sec
     gradient                   ...        0 min,  0.039 sec
 * total energy  :  -145.0265029 Eh     change       -0.3454293E-05 Eh
   gradient norm :     0.0008628 Eh/α   predicted    -0.2587711E-05 ( -25.09%)
   displ. norm   :     0.0054339 α      lambda        0.0000000E+00
   maximum displ.:     0.0027158 α      in ANC's #1, #29, #175, ...

   *** GEOMETRY OPTIMIZATION CONVERGED AFTER 7 ITERATIONS ***

------------------------------------------------------------------------
 total energy gain   :        -0.0000010 Eh       -0.0007 kcal/mol
 total RMSD          :         0.0010032 a0        0.0005 Å
 total power (kW/mol):        -0.0003926 (step)   -0.0012 (real)
------------------------------------------------------------------------

 ANCopt (total)                0 d,  0 h,  0 min,  2.286 sec
 optimizer setup                ...        0 min,  0.000 sec (  0.006%)
 model hessian                  ...        0 min,  0.019 sec (  0.852%)
 ANC generation                 ...        0 min,  0.017 sec (  0.725%)
 coordinate transformation      ...        0 min,  0.001 sec (  0.023%)
 single point calculation       ...        0 min,  2.238 sec ( 97.914%)
 optimization log               ...        0 min,  0.002 sec (  0.077%)
 hessian update                 ...        0 min,  0.002 sec (  0.093%)
 rational function              ...        0 min,  0.001 sec (  0.047%)

================
 final structure:
================
$coord
       -3.77832776495015        1.66484705943584       -0.14777554296349      c
       -5.50846150142828        0.41090631469527        0.17401242353073      o
       -2.04948000839864        2.91950010330220       -0.47224538542417      o
        2.30738471841997        1.37112644532087       18.89730354210701      c
        0.02755232099921        5.42059666922773       18.89724814258083      c
       -2.25362821638654        9.45937610920322       18.89733495023511      c
       -4.52928999141030       13.49908192059324       18.89734723418616      c
       -6.80506575875942       17.55059043013600       18.89726642335400      c
        4.50402998640549        0.08134958879210       18.89746250710256      c
        6.89754701271887        1.35250162043588       18.89727358416267      c
        2.25152929896596        4.08035544803044       18.89709533776738      c
        4.61796570631684        5.39640400089015       18.89694952492073      c
       -0.01569150610560        8.09795527887604       18.89720789941196      c
        2.34187981075054        9.42336447033273       18.89700423418411      c
       -2.28428380955702       12.12140685612157       18.89726773247236      c
        0.06935036247448       13.44916669052740       18.89709951902768      c
       -4.54438846904011       16.14878286176156       18.89727260313110      c
       -2.20365599242418       17.47539678757131       18.89719456256060      c
       -6.76012911586977       20.15879740182059       18.89723186448484      c
       -4.49439682784412       21.46192892519617       18.89729659502881      c
        9.15173927620743        0.06294027160501       18.89732701934606      c
       11.51059853513476        1.33017502081612       18.89726450632899      c
        6.89552284196780        4.05883709634146       18.89706070324244      c
        9.23513349537195        5.37288454528421       18.89714576536838      c
        4.62687178556942        8.07740065204619       18.89700090450975      c
        6.96394018727709        9.39781551457561       18.89715014542167      c
        2.35643465266778       12.09844104832428       18.89707521452901      c
        4.69240091241160       13.41962051259528       18.89718569681220      c
        0.08984721464429       16.12375638749318       18.89716270797748      c
        2.42193590203502       17.44106761673398       18.89721285819746      c
       -2.17909829337694       20.16287967714557       18.89724244987094      c
        0.15447377613346       21.43492435266171       18.89724203298225      c
       13.79174219892298        0.03661649843941       18.89728107510636      c
       16.12531464328129        1.30868756045425       18.89727561059981      c
       11.52424120703905        4.03047320795168       18.89721489048092      c
       13.85633288756120        5.34777766380805       18.89727324393952      c
        9.25377083140634        8.05192055392979       18.89719975287784      c
       11.58973610638295        9.37309942184336       18.89728580588945      c
        6.98222838041499       12.07372762725329       18.89723732157041      c
        9.31929131631978       13.39414327824810       18.89731945497251      c
        4.71104261639451       16.09865049491120       18.89724008207519      c
        7.05064233947785       17.41270963693520       18.89730810578165      c
        2.43560781484877       20.14137303646141       18.89723590669304      c
        4.79445875153335       21.40860474513783       18.89724330178437      c
       18.44060218849039        0.00965265633790       18.89726971604976      c
       20.70631009184927        1.31278599795332       18.89722845639638      c
       16.14984283352882        3.99615619681137       18.89727447502325      c
       18.49055803172732        5.32277389920682       18.89724739356705      c
       13.87682525223635        8.02237124839116       18.89729394469637      c
       16.23045556431929        9.35014298017624       18.89725740860262      c
       11.60428400227766       12.04817543388826       18.89732106955444      c
       13.96184864379300       13.37360521845003       18.89728593706863      c
        9.32820061166228       16.07513654780558       18.89733315413761      c
       11.69461883847886       17.39119977320074       18.89730705870116      c
        7.04862996039801       20.11903619570155       18.89726611468366      c
        9.44213724672729       21.39018897243465       18.89722068873298      c
       20.75122807969465        3.92096862802284       18.89723250949316      c
       18.47546149286170        7.97246918670760       18.89722987050873      c
       16.19980571685258       12.01218548641790       18.89723285574409      c
       13.91860034245976       16.05097628255673       18.89726051708723      c
       11.63877929629511       20.10042195728458       18.89723167034510      c
       -4.48351867482671       23.50337614214743       18.89733748508715      h
        0.16053410620653       23.47805521116592       18.89725808486500      h
        4.79753042975692       23.45218651220377       18.89723407248379      h
        9.43061825531136       23.43299683408792       18.89721168397936      h
        4.51553782064945       -1.96146657799201       18.89759839587399      h
        9.14866594046722       -1.98064387794532       18.89741679762690      h
       13.78566876206249       -2.00656587418305       18.89728696822194      h
       18.42972659714219       -2.03180470623051       18.89729210719337      h
        0.51777437310923        0.38580105379836       18.89740534113186      h
       -1.75559980687772        4.42197537105705       18.89730370303556      h
       -4.03552453179098        8.45938546996833       18.89741940030340      h
       -6.31176824682596       12.50042703295904       18.89741835363078      h
       -8.58518233596299       16.55122168051883       18.89735456025584      h
       22.53134945062135        4.92032289574138       18.89723634534029      h
       20.25791889691692        8.97110078599914       18.89720288084665      h
       17.98168733477236       13.01216588778885       18.89718453976883      h
       15.70173241074250       17.04959048364043       18.89720846109838      h
       13.42842134571653       21.08572297111558       18.89725770689191      h
       -8.51839341976369       21.19797824583590       18.89742054098247      h
       22.46458074544534        0.27358611095208       18.89729967306805      h
$end

 Bond Distances (Angstroems)
 ---------------------------
C1-O2=1.1435         C1-O3=1.1434         O2-C1=1.1435         O3-C1=1.1434         C4-C9=1.3480         C4-C11=1.4340        
C4-H70=1.0811        C5-C11=1.3741        C5-C13=1.4170        C5-H71=1.0815        C6-C13=1.3862        C6-C15=1.4088        
C6-H72=1.0813        C7-C15=1.3939        C7-C17=1.4022        C7-H73=1.0812        C8-C17=1.4076        C8-C19=1.3804        
C8-H74=1.0803        C9-C4=1.3480         C9-C10=1.4341        C9-H66=1.0810        C10-C9=1.4341        C10-C21=1.3743       
C10-C23=1.4321       C11-C4=1.4340        C11-C5=1.3741        C11-C12=1.4329       C12-C11=1.4329       C12-C23=1.3977       
C12-C25=1.4187       C13-C5=1.4170        C13-C6=1.3862        C13-C14=1.4312       C14-C13=1.4312       C14-C25=1.4033       
C14-C27=1.4156       C15-C6=1.4088        C15-C7=1.3939        C15-C16=1.4300       C16-C15=1.4300       C16-C27=1.4056       
C16-C29=1.4154       C17-C7=1.4022        C17-C8=1.4076        C17-C18=1.4238       C18-C17=1.4238       C18-C29=1.4088       
C18-C31=1.4222       C19-C8=1.3804        C19-C20=1.3831       C19-H80=1.0808       C20-C19=1.3831       C20-C31=1.4049       
C20-H62=1.0803       C21-C10=1.3743       C21-C22=1.4170       C21-H67=1.0814       C22-C21=1.4170       C22-C33=1.3877       
C22-C35=1.4290       C23-C10=1.4321       C23-C12=1.3977       C23-C24=1.4200       C24-C23=1.4200       C24-C35=1.4043       
C24-C37=1.4177       C25-C12=1.4187       C25-C14=1.4033       C25-C26=1.4205       C26-C25=1.4205       C26-C37=1.4055       
C26-C39=1.4161       C27-C14=1.4156       C27-C16=1.4056       C27-C28=1.4202       C28-C27=1.4202       C28-C39=1.4055       
C28-C41=1.4177       C29-C16=1.4154       C29-C18=1.4088       C29-C30=1.4174       C30-C29=1.4174       C30-C41=1.4043       
C30-C43=1.4290       C31-C18=1.4222       C31-C20=1.4049       C31-C32=1.4064       C32-C31=1.4064       C32-C43=1.3877       
C32-H63=1.0812       C33-C22=1.3877       C33-C34=1.4064       C33-H68=1.0812       C34-C33=1.4064       C34-C45=1.4049       
C34-C47=1.4222       C35-C22=1.4290       C35-C24=1.4043       C35-C36=1.4174       C36-C35=1.4174       C36-C47=1.4088       
C36-C49=1.4154       C37-C24=1.4177       C37-C26=1.4055       C37-C38=1.4202       C38-C37=1.4202       C38-C49=1.4056       
C38-C51=1.4156       C39-C26=1.4161       C39-C28=1.4055       C39-C40=1.4205       C40-C39=1.4205       C40-C51=1.4033       
C40-C53=1.4187       C41-C28=1.4177       C41-C30=1.4043       C41-C42=1.4200       C42-C41=1.4200       C42-C53=1.3977       
C42-C55=1.4321       C43-C30=1.4290       C43-C32=1.3877       C43-C44=1.4170       C44-C43=1.4170       C44-C55=1.3743       
C44-H64=1.0814       C45-C34=1.4049       C45-C46=1.3831       C45-H69=1.0803       C46-C45=1.3831       C46-C57=1.3804       
C46-H81=1.0808       C47-C34=1.4222       C47-C36=1.4088       C47-C48=1.4238       C48-C47=1.4238       C48-C57=1.4076       
C48-C58=1.4022       C49-C36=1.4154       C49-C38=1.4056       C49-C50=1.4300       C50-C49=1.4300       C50-C58=1.3939       
C50-C59=1.4088       C51-C38=1.4156       C51-C40=1.4033       C51-C52=1.4312       C52-C51=1.4312       C52-C59=1.3862       
C52-C60=1.4170       C53-C40=1.4187       C53-C42=1.3977       C53-C54=1.4329       C54-C53=1.4329       C54-C60=1.3741       
C54-C61=1.4340       C55-C42=1.4321       C55-C44=1.3743       C55-C56=1.4341       C56-C55=1.4341       C56-C61=1.3480       
C56-H65=1.0810       C57-C46=1.3804       C57-C48=1.4076       C57-H75=1.0803       C58-C48=1.4022       C58-C50=1.3939       
C58-H76=1.0812       C59-C50=1.4088       C59-C52=1.3862       C59-H77=1.0813       C60-C52=1.4170       C60-C54=1.3741       
C60-H78=1.0815       C61-C54=1.4340       C61-C56=1.3480       C61-H79=1.0811       H62-C20=1.0803       H63-C32=1.0812       
H64-C44=1.0814       H65-C56=1.0810       H66-C9=1.0810        H67-C21=1.0814       H68-C33=1.0812       H69-C45=1.0803       
H70-C4=1.0811        H71-C5=1.0815        H72-C6=1.0813        H73-C7=1.0812        H74-C8=1.0803        H75-C57=1.0803       
H76-C58=1.0812       H77-C59=1.0813       H78-C60=1.0815       H79-C61=1.0811       H80-C19=1.0808       H81-C46=1.0808       
 C  H  Rav=1.0810 sigma=0.0004  Rmin=1.0803  Rmax=1.0815    20
 C  C  Rav=1.4088 sigma=0.0191  Rmin=1.3480  Rmax=1.4341    77
 O  C  Rav=1.1434 sigma=0.0001  Rmin=1.1434  Rmax=1.1435     2

 selected bond angles (degree)
 --------------------
O3-C1-O2=179.92                C11-C4-C9=121.60               H70-C4-C9=120.74               H70-C4-C11=117.66              
C13-C5-C11=122.00              H71-C5-C11=119.68              H71-C5-C13=118.32              C15-C6-C13=121.97              
H72-C6-C13=119.39              H72-C6-C15=118.64              C17-C7-C15=121.86              H73-C7-C15=119.20              
H73-C7-C17=118.93              C19-C8-C17=120.82              H74-C8-C17=118.89              H74-C8-C19=120.30              
C10-C9-C4=121.61               H66-C9-C4=120.74               H66-C9-C10=117.65              C21-C10-C9=122.26              
C23-C10-C9=117.93              C23-C10-C21=119.82             

 selected dihedral angles (degree)
 ---------------------------------
C10-C9-C4-C11=  0.00          C10-C9-C4-H70=180.00          H66-C9-C4-C11=180.00          H66-C9-C4-H70=  0.00          
C21-C10-C9-C4=180.00          C21-C10-C9-H66=  0.00         C23-C10-C9-C4=  0.00          C23-C10-C9-H66=180.00         

 CMA Distance (Angstroems)
 ---------------------------
R(CMA): 12.5297
           -------------------------------------------------
          |                Final Singlepoint                |
           -------------------------------------------------

          ...................................................
          :                      SETUP                      :
          :.................................................:
          :  # basis functions                 264          :
          :  # atomic orbitals                 264          :
          :  # shells                          142          :
          :  # electrons                       268          :
          :  max. iterations                   250          :
          :  Hamiltonian                  GFN2-xTB          :
          :  restarted?                      false          :
          :  GBSA solvation                  false          :
          :  PC potential                    false          :
          :  electronic temp.          300.0000000     K    :
          :  accuracy                    1.0000000          :
          :  -> integral cutoff          0.2500000E+02      :
          :  -> integral neglect         0.1000000E-07      :
          :  -> SCF convergence          0.1000000E-05 Eh   :
          :  -> wf. convergence          0.1000000E-03 e    :
          :  Broyden damping             0.4000000          :
          :  net charge                          0          :
          :  unpaired electrons                  0          :
          ...................................................

 iter      E             dE          RMSdq      gap      omega  full diag
   1   -147.8171908 -0.147817E+03  0.192E-05    0.31       0.0  T
   2   -147.8171908  0.180222E-09  0.369E-05    0.31     300.9  T
   3   -147.8171908  0.624340E-09  0.714E-05    0.31     155.6  T

   *** convergence criteria satisfied after 3 iterations ***

         #    Occupation            Energy/Eh            Energy/eV
      -------------------------------------------------------------
         1        2.0000           -0.8102223             -22.0473
       ...           ...                  ...                  ...
       128        2.0000           -0.3919788             -10.6663
       129        2.0000           -0.3883812             -10.5684
       130        2.0000           -0.3850517             -10.4778
       131        2.0000           -0.3845634             -10.4645
       132        2.0000           -0.3676795             -10.0051
       133        2.0000           -0.3445298              -9.3751
       134        1.9948           -0.3298269              -8.9750 (HOMO)
       135        0.0052           -0.3185068              -8.6670 (LUMO)
       136                         -0.3023974              -8.2287
       137                         -0.2753624              -7.4930
       138                         -0.2530943              -6.8870
       139                         -0.2518952              -6.8544
       ...                                ...                  ...
       264                          1.3666447              37.1883
      -------------------------------------------------------------
                  HL-Gap            0.0113201 Eh            0.3080 eV
             Fermi-level           -0.3241669 Eh           -8.8210 eV

 SCC (total)                   0 d,  0 h,  0 min,  0.189 sec
 SCC setup                      ...        0 min,  0.000 sec (  0.171%)
 Dispersion                     ...        0 min,  0.003 sec (  1.666%)
 classical contributions        ...        0 min,  0.000 sec (  0.073%)
 integral evaluation            ...        0 min,  0.011 sec (  5.617%)
 iterations                     ...        0 min,  0.129 sec ( 68.103%)
 molecular gradient             ...        0 min,  0.040 sec ( 21.288%)
 printout                       ...        0 min,  0.006 sec (  3.066%)

         :::::::::::::::::::::::::::::::::::::::::::::::::::::
         ::                     SUMMARY                     ::
         :::::::::::::::::::::::::::::::::::::::::::::::::::::
         :: total energy            -145.026502898877 Eh    ::
         :: gradient norm              0.000862884033 Eh/a0 ::
         :: HOMO-LUMO gap              0.308035213884 eV    ::
         ::.................................................::
         :: SCC energy              -147.819608868219 Eh    ::
         :: -> isotropic ES            0.034330053400 Eh    ::
         :: -> anisotropic ES          0.011124799182 Eh    ::
         :: -> anisotropic XC          0.058717491689 Eh    ::
         :: -> dispersion             -0.149222559434 Eh    ::
         :: repulsion energy           2.793105969342 Eh    ::
         :: add. restraining           0.000000000000 Eh    ::
         :: total charge               0.000000000759 e     ::
         :::::::::::::::::::::::::::::::::::::::::::::::::::::

           -------------------------------------------------
          |                Property Printout                |
           -------------------------------------------------

    * Orbital Energies and Occupations

         #    Occupation            Energy/Eh            Energy/eV
      -------------------------------------------------------------
         1        2.0000           -0.8102223             -22.0473
       ...           ...                  ...                  ...
       122        2.0000           -0.4076191             -11.0919
       123        2.0000           -0.4060502             -11.0492
       124        2.0000           -0.4019345             -10.9372
       125        2.0000           -0.4006833             -10.9031
       126        2.0000           -0.3957257             -10.7682
       127        2.0000           -0.3942979             -10.7294
       128        2.0000           -0.3919788             -10.6663
       129        2.0000           -0.3883812             -10.5684
       130        2.0000           -0.3850517             -10.4778
       131        2.0000           -0.3845634             -10.4645
       132        2.0000           -0.3676795             -10.0051
       133        2.0000           -0.3445298              -9.3751
       134        1.9948           -0.3298269              -8.9750 (HOMO)
       135        0.0052           -0.3185068              -8.6670 (LUMO)
       136                         -0.3023974              -8.2287
       137                         -0.2753624              -7.4930
       138                         -0.2530943              -6.8870
       139                         -0.2518952              -6.8544
       140                         -0.2406408              -6.5482
       141                         -0.2371137              -6.4522
       142                         -0.2306860              -6.2773
       143                         -0.2232340              -6.0745
       144                         -0.2231147              -6.0713
       145                         -0.2231132              -6.0712
       ...                                ...                  ...
       264                          1.3666447              37.1883
      -------------------------------------------------------------
                  HL-Gap            0.0113201 Eh            0.3080 eV
             Fermi-level           -0.3241669 Eh           -8.8210 eV

     #   Z          covCN         q      C6AA      α(0)
     1   6 c        1.711     0.464    21.599     7.524
     2   8 o        0.856    -0.232    18.604     5.783
     3   8 o        0.856    -0.232    18.596     5.782
     4   6 c        2.912    -0.035    28.876     8.812
     5   6 c        2.921    -0.044    29.082     8.844
     6   6 c        2.922    -0.044    29.102     8.847
     7   6 c        2.922    -0.045    29.109     8.848
     8   6 c        2.919    -0.037    28.922     8.819
     9   6 c        2.912    -0.035    28.876     8.812
    10   6 c        2.975     0.012    27.752     8.641
    11   6 c        2.975     0.012    27.751     8.641
    12   6 c        2.992     0.001    27.988     8.678
    13   6 c        2.973     0.011    27.760     8.642
    14   6 c        2.993    -0.000    28.023     8.684
    15   6 c        2.973     0.011    27.756     8.642
    16   6 c        2.994    -0.000    28.029     8.684
    17   6 c        2.976     0.013    27.724     8.637
    18   6 c        2.998     0.001    27.988     8.678
    19   6 c        2.910    -0.029    28.715     8.787
    20   6 c        2.920    -0.037    28.921     8.819
    21   6 c        2.921    -0.043    29.077     8.843
    22   6 c        2.973     0.011    27.765     8.643
    23   6 c        2.992     0.001    27.987     8.678
    24   6 c        2.989     0.000    28.018     8.683
    25   6 c        2.989     0.000    28.019     8.683
    26   6 c        2.991    -0.001    28.043     8.687
    27   6 c        2.989     0.001    28.008     8.681
    28   6 c        2.991    -0.001    28.053     8.688
    29   6 c        2.988     0.002    27.984     8.678
    30   6 c        2.994    -0.001    28.031     8.685
    31   6 c        2.976     0.013    27.728     8.638
    32   6 c        2.922    -0.044    29.095     8.845
    33   6 c        2.922    -0.044    29.094     8.845
    34   6 c        2.976     0.013    27.728     8.638
    35   6 c        2.994    -0.001    28.031     8.685
    36   6 c        2.988     0.002    27.984     8.677
    37   6 c        2.991    -0.001    28.053     8.688
    38   6 c        2.989     0.001    28.008     8.681
    39   6 c        2.991    -0.001    28.043     8.687
    40   6 c        2.989     0.000    28.018     8.683
    41   6 c        2.989     0.000    28.017     8.683
    42   6 c        2.992     0.001    27.986     8.678
    43   6 c        2.973     0.011    27.764     8.643
    44   6 c        2.921    -0.043    29.077     8.843
    45   6 c        2.920    -0.037    28.920     8.819
    46   6 c        2.910    -0.029    28.714     8.787
    47   6 c        2.998     0.001    27.988     8.678
    48   6 c        2.976     0.013    27.724     8.637
    49   6 c        2.994    -0.000    28.028     8.684
    50   6 c        2.973     0.011    27.755     8.642
    51   6 c        2.993    -0.000    28.022     8.683
    52   6 c        2.973     0.011    27.758     8.642
    53   6 c        2.992     0.001    27.987     8.678
    54   6 c        2.975     0.012    27.749     8.641
    55   6 c        2.975     0.012    27.751     8.641
    56   6 c        2.912    -0.035    28.875     8.811
    57   6 c        2.919    -0.037    28.920     8.819
    58   6 c        2.922    -0.045    29.107     8.847
    59   6 c        2.922    -0.044    29.100     8.846
    60   6 c        2.921    -0.044    29.080     8.843
    61   6 c        2.912    -0.035    28.875     8.811
    62   1 h        0.926     0.030     2.581     2.512
    63   1 h        0.926     0.031     2.568     2.506
    64   1 h        0.925     0.031     2.568     2.506
    65   1 h        0.926     0.031     2.577     2.510
    66   1 h        0.926     0.031     2.578     2.511
    67   1 h        0.925     0.031     2.569     2.506
    68   1 h        0.926     0.031     2.568     2.506
    69   1 h        0.926     0.030     2.581     2.512
    70   1 h        0.926     0.031     2.578     2.511
    71   1 h        0.925     0.031     2.571     2.508
    72   1 h        0.925     0.031     2.571     2.507
    73   1 h        0.926     0.031     2.569     2.507
    74   1 h        0.926     0.030     2.581     2.512
    75   1 h        0.926     0.030     2.580     2.512
    76   1 h        0.926     0.031     2.568     2.506
    77   1 h        0.925     0.031     2.569     2.506
    78   1 h        0.925     0.031     2.569     2.506
    79   1 h        0.926     0.031     2.576     2.510
    80   1 h        0.926     0.029     2.594     2.519
    81   1 h        0.926     0.029     2.594     2.518

 Mol. C6AA /au·bohr⁶  :     125057.124940
 Mol. C8AA /au·bohr⁸  :    3361118.029431
 Mol. α(0) /au        :        575.166279


Wiberg/Mayer (AO) data.
largest (>0.10) Wiberg bond orders for each atom

 ---------------------------------------------------------------------------
     #   Z sym  total        # sym  WBO       # sym  WBO       # sym  WBO
 ---------------------------------------------------------------------------
     1   6 c    3.936 --     3 o    1.968     2 o    1.968
     2   8 o    2.370 --     1 c    1.968     3 o    0.402
     3   8 o    2.370 --     1 c    1.968     2 o    0.402
     4   6 c    3.971 --     9 c    1.695    11 c    1.166    70 h    0.967
     5   6 c    3.881 --    11 c    1.485    13 c    1.240    71 h    0.966
     6   6 c    3.821 --    13 c    1.406    15 c    1.281    72 h    0.967
     7   6 c    3.802 --    15 c    1.360    17 c    1.315    73 h    0.967
     8   6 c    3.843 --    19 c    1.455    17 c    1.290    74 h    0.970
     9   6 c    3.970 --     4 c    1.695    10 c    1.165    66 h    0.967
    10   6 c    3.980 --    21 c    1.483    23 c    1.176     9 c    1.165
    11   6 c    3.977 --     5 c    1.485    12 c    1.173     4 c    1.166
    12   6 c    3.951 --    23 c    1.338    25 c    1.230    11 c    1.173
    13   6 c    3.981 --     6 c    1.406     5 c    1.240    14 c    1.180
    14   6 c    3.947 --    25 c    1.304    27 c    1.244    13 c    1.180
    15   6 c    3.985 --     7 c    1.360     6 c    1.281    16 c    1.186
    16   6 c    3.945 --    27 c    1.292    29 c    1.247    15 c    1.186
    17   6 c    3.986 --     7 c    1.315     8 c    1.290    18 c    1.219
    18   6 c    3.947 --    29 c    1.280    31 c    1.226    17 c    1.219
    19   6 c    3.985 --     8 c    1.455    20 c    1.438    80 h    0.970
    20   6 c    3.838 --    19 c    1.438    31 c    1.304    62 h    0.970
    21   6 c    3.876 --    10 c    1.483    22 c    1.240    67 h    0.966
    22   6 c    3.986 --    33 c    1.396    21 c    1.240    35 c    1.190
    23   6 c    3.945 --    12 c    1.338    24 c    1.225    10 c    1.176
    24   6 c    3.976 --    35 c    1.299    37 c    1.232    23 c    1.225
    25   6 c    3.968 --    14 c    1.304    12 c    1.230    26 c    1.220
    26   6 c    3.974 --    37 c    1.289    39 c    1.238    25 c    1.220
    27   6 c    3.980 --    16 c    1.292    14 c    1.244    28 c    1.222
    28   6 c    3.964 --    39 c    1.289    41 c    1.232    27 c    1.222
    29   6 c    3.986 --    18 c    1.280    16 c    1.247    30 c    1.239
    30   6 c    3.945 --    41 c    1.299    29 c    1.239    43 c    1.190
    31   6 c    3.986 --    20 c    1.304    32 c    1.293    18 c    1.226
    32   6 c    3.820 --    43 c    1.396    31 c    1.293    63 h    0.967
    33   6 c    3.820 --    22 c    1.396    34 c    1.293    68 h    0.967
    34   6 c    3.986 --    45 c    1.304    33 c    1.293    47 c    1.226
    35   6 c    3.945 --    24 c    1.299    36 c    1.239    22 c    1.190
    36   6 c    3.986 --    47 c    1.280    49 c    1.247    35 c    1.239
    37   6 c    3.964 --    26 c    1.289    24 c    1.232    38 c    1.222
    38   6 c    3.980 --    49 c    1.292    51 c    1.244    37 c    1.222
    39   6 c    3.974 --    28 c    1.289    26 c    1.238    40 c    1.220
    40   6 c    3.968 --    51 c    1.304    53 c    1.230    39 c    1.220
    41   6 c    3.976 --    30 c    1.299    28 c    1.232    42 c    1.225
    42   6 c    3.945 --    53 c    1.338    41 c    1.225    55 c    1.176
    43   6 c    3.986 --    32 c    1.396    44 c    1.240    30 c    1.190
    44   6 c    3.876 --    55 c    1.483    43 c    1.240    64 h    0.966
    45   6 c    3.838 --    46 c    1.438    34 c    1.304    69 h    0.970
    46   6 c    3.985 --    57 c    1.455    45 c    1.438    81 h    0.970
    47   6 c    3.947 --    36 c    1.280    34 c    1.226    48 c    1.219
    48   6 c    3.986 --    58 c    1.315    57 c    1.290    47 c    1.219
    49   6 c    3.945 --    38 c    1.292    36 c    1.247    50 c    1.186
    50   6 c    3.985 --    58 c    1.360    59 c    1.281    49 c    1.186
    51   6 c    3.947 --    40 c    1.304    38 c    1.244    52 c    1.180
    52   6 c    3.981 --    59 c    1.406    60 c    1.240    51 c    1.180
    53   6 c    3.951 --    42 c    1.338    40 c    1.230    54 c    1.173
    54   6 c    3.977 --    60 c    1.485    53 c    1.173    61 c    1.166
    55   6 c    3.980 --    44 c    1.483    42 c    1.176    56 c    1.165
    56   6 c    3.970 --    61 c    1.695    55 c    1.165    65 h    0.967
    57   6 c    3.843 --    46 c    1.455    48 c    1.290    75 h    0.970
    58   6 c    3.802 --    50 c    1.360    48 c    1.315    76 h    0.967
    59   6 c    3.821 --    52 c    1.406    50 c    1.281    77 h    0.967
    60   6 c    3.881 --    54 c    1.485    52 c    1.240    78 h    0.966
    61   6 c    3.971 --    56 c    1.695    54 c    1.166    79 h    0.967
    62   1 h    0.998 --    20 c    0.970
    63   1 h    0.998 --    32 c    0.967
    64   1 h    0.998 --    44 c    0.966
    65   1 h    0.998 --    56 c    0.967
    66   1 h    0.998 --     9 c    0.967
    67   1 h    0.998 --    21 c    0.966
    68   1 h    0.998 --    33 c    0.967
    69   1 h    0.998 --    45 c    0.970
    70   1 h    0.998 --     4 c    0.967
    71   1 h    0.998 --     5 c    0.966
    72   1 h    0.998 --     6 c    0.967
    73   1 h    0.998 --     7 c    0.967
    74   1 h    0.998 --     8 c    0.970
    75   1 h    0.998 --    57 c    0.970
    76   1 h    0.998 --    58 c    0.967
    77   1 h    0.998 --    59 c    0.967
    78   1 h    0.998 --    60 c    0.966
    79   1 h    0.998 --    61 c    0.967
    80   1 h    0.998 --    19 c    0.970
    81   1 h    0.998 --    46 c    0.970
 ---------------------------------------------------------------------------

Topologies differ in total number of bonds
Writing topology from bond orders to xtbtopo.mol

molecular dipole:
                 x           y           z       tot (Debye)
 q only:        0.014       0.005       0.001
   full:        0.013       0.005       0.001       0.036
molecular quadrupole (traceless):
                xx          xy          yy          xz          yz          zz
 q only:        4.554      -1.318       6.479       0.740       0.428     -11.034
  q+dip:       20.634      -2.940      21.965       0.872       0.519     -42.600
   full:        8.048      -2.975      10.803       1.097       0.682     -18.852

           -------------------------------------------------
          |                Geometry Summary                 |
           -------------------------------------------------

      molecular mass/u    :      760.7910429
   center of mass at/Å    :        3.3608698       5.4034624       9.4169638
  moments of inertia/u·Å² :        0.1183193E+05   0.1729962E+05   0.2428808E+05
rotational constants/cm⁻¹ :        0.1424758E-02   0.9744508E-03   0.6940702E-03

 * 97 selected distances

     #   Z          #   Z                                           value/Å
     1   6 c        2   8 o                                       1.1434733
     1   6 c        3   8 o                                       1.1433596
     4   6 c        9   6 c                                       1.3479771
     4   6 c       11   6 c                                       1.4339670 (max)
     5   6 c       11   6 c                                       1.3740605
    11   6 c       12   6 c                                       1.4328890
     5   6 c       13   6 c                                       1.4169821
     6   6 c       13   6 c                                       1.3861846
    13   6 c       14   6 c                                       1.4312119
     6   6 c       15   6 c                                       1.4087795
     7   6 c       15   6 c                                       1.3938615
    15   6 c       16   6 c                                       1.4300069
     7   6 c       17   6 c                                       1.4021842
     8   6 c       17   6 c                                       1.4076241
    17   6 c       18   6 c                                       1.4237655
     8   6 c       19   6 c                                       1.3804087
    19   6 c       20   6 c                                       1.3831376
    10   6 c       21   6 c                                       1.3742675
    21   6 c       22   6 c                                       1.4169803
    10   6 c       23   6 c                                       1.4321316
    12   6 c       23   6 c                                       1.3977045
    23   6 c       24   6 c                                       1.4199808
    12   6 c       25   6 c                                       1.4187303
    14   6 c       25   6 c                                       1.4033485
    25   6 c       26   6 c                                       1.4204624
    14   6 c       27   6 c                                       1.4156106
    16   6 c       27   6 c                                       1.4055823
    27   6 c       28   6 c                                       1.4201538
    16   6 c       29   6 c                                       1.4153736
    18   6 c       29   6 c                                       1.4087538
    29   6 c       30   6 c                                       1.4173602
    18   6 c       31   6 c                                       1.4222142
    20   6 c       31   6 c                                       1.4048771
    31   6 c       32   6 c                                       1.4064230
    22   6 c       33   6 c                                       1.3877072
    33   6 c       34   6 c                                       1.4064298
    22   6 c       35   6 c                                       1.4289546
    24   6 c       35   6 c                                       1.4042736
    35   6 c       36   6 c                                       1.4173598
    24   6 c       37   6 c                                       1.4177192
    26   6 c       37   6 c                                       1.4055368
    37   6 c       38   6 c                                       1.4201532
    26   6 c       39   6 c                                       1.4160649
    28   6 c       39   6 c                                       1.4055348
    39   6 c       40   6 c                                       1.4204601
    28   6 c       41   6 c                                       1.4177161
    30   6 c       41   6 c                                       1.4042747
    41   6 c       42   6 c                                       1.4199788
    30   6 c       43   6 c                                       1.4289585
    32   6 c       43   6 c                                       1.3877009
    43   6 c       44   6 c                                       1.4169756
    34   6 c       45   6 c                                       1.4048683
    45   6 c       46   6 c                                       1.3831269
    34   6 c       47   6 c                                       1.4222065
    36   6 c       47   6 c                                       1.4087518
    47   6 c       48   6 c                                       1.4237585
    36   6 c       49   6 c                                       1.4153756
    38   6 c       49   6 c                                       1.4055852
    49   6 c       50   6 c                                       1.4300083
    38   6 c       51   6 c                                       1.4156103
    40   6 c       51   6 c                                       1.4033499
    51   6 c       52   6 c                                       1.4312142
    40   6 c       53   6 c                                       1.4187285
    42   6 c       53   6 c                                       1.3977067
    53   6 c       54   6 c                                       1.4328844
    42   6 c       55   6 c                                       1.4321269
    44   6 c       55   6 c                                       1.3742597
    46   6 c       57   6 c                                       1.3803956
    48   6 c       57   6 c                                       1.4076202
    48   6 c       58   6 c                                       1.4021812
    50   6 c       58   6 c                                       1.3938610
    50   6 c       59   6 c                                       1.4087857
    52   6 c       59   6 c                                       1.3861935
    52   6 c       60   6 c                                       1.4169887
    54   6 c       60   6 c                                       1.3740577
    54   6 c       61   6 c                                       1.4339633
    56   6 c       61   6 c                                       1.3479730
    20   6 c       62   1 h                                       1.0803028
    32   6 c       63   1 h                                       1.0811831
    44   6 c       64   1 h                                       1.0814182
    56   6 c       65   1 h                                       1.0810247
     9   6 c       66   1 h                                       1.0810290
    21   6 c       67   1 h                                       1.0814195
    33   6 c       68   1 h                                       1.0812104
    45   6 c       69   1 h                                       1.0803081
     4   6 c       70   1 h                                       1.0810732
     5   6 c       71   1 h                                       1.0815011
     6   6 c       72   1 h                                       1.0812758
     7   6 c       73   1 h                                       1.0811987
     8   6 c       74   1 h                                       1.0802934
    57   6 c       75   1 h                                       1.0802919 (min)
    58   6 c       76   1 h                                       1.0811830
    59   6 c       77   1 h                                       1.0812663
    60   6 c       78   1 h                                       1.0814900
    61   6 c       79   1 h                                       1.0810817
    19   6 c       80   1 h                                       1.0807907
    46   6 c       81   1 h                                       1.0807987

 * 3 distinct bonds (by element types)

   Z      Z             #   av. dist./Å        max./Å        min./Å
   1 H    6 C          20     1.0810070     1.0815011     1.0802919
   6 C    6 C          75     1.4081383     1.4339670     1.3479730
   6 C    8 O           2     1.1434165     1.1434733     1.1433596


optimized geometry written to: xtbopt.coord


           -------------------------------------------------
          | TOTAL ENERGY             -145.026502898877 Eh   |
          | GRADIENT NORM               0.000862884033 Eh/α |
          | HOMO-LUMO GAP               0.308035213884 eV   |
           -------------------------------------------------

------------------------------------------------------------------------
 * finished run on 2024/12/05 at 16:17:40.197     
------------------------------------------------------------------------
 total:
 * wall-time:     0 d,  0 h,  0 min,  3.131 sec
 *  cpu-time:     0 d,  0 h,  0 min, 10.396 sec
 * ratio c/w:     3.320 speedup
 SCF:
 * wall-time:     0 d,  0 h,  0 min,  0.630 sec
 *  cpu-time:     0 d,  0 h,  0 min,  1.762 sec
 * ratio c/w:     2.798 speedup
 ANC optimizer:
 * wall-time:     0 d,  0 h,  0 min,  2.478 sec
 *  cpu-time:     0 d,  0 h,  0 min,  8.500 sec
 * ratio c/w:     3.431 speedup

