81
 energy: -145.026501870250 gnorm: 0.001021797801 xtb: 6.7.1 (edcfbbe)
c           -1.99969000039486        0.88131900017403       -0.07847360001550
o           -2.91478000057556        0.21722000004289        0.09232520001823
o           -1.08443000021413        1.54483000030505       -0.24988200004934
c            1.22095000024109        0.72522100014321        9.99999000197462
c            0.01451840000287        2.86809000056634       10.00000000197462
c           -1.19252000023548        5.00533000098836       10.00000000197462
c           -2.39655000047323        7.14307000141048       10.00000000197462
c           -3.60051000071096        9.28724000183388        9.99999000197462
c            2.38328000047061        0.04271680000844       10.00000000197462
c            3.64988000072071        0.71567500014132       10.00000000197462
c            1.19141000023526        2.15898000042632       10.00000000197462
c            2.44361000048252        2.85546000056385        9.99999000197462
c           -0.00828224000164        4.28500000084612       10.00000000197462
c            1.23928000024471        4.98635000098461        9.99999000197462
c           -1.20862000023866        6.41409000126654       10.00000000197462
c            0.03689610000729        7.11664000140527        9.99999000197462
c           -2.40429000047476        8.54525000168736       10.00000000197462
c           -1.16570000023018        9.24713000182596       10.00000000197462
c           -3.57681000070628       10.66740000210641        9.99997000197462
c           -2.37794000046955       11.35700000224258       10.00000000197462
c            4.84281000095627        0.03335280000659       10.00000000197462
c            6.09093000120273        0.70417200013905       10.00000000197462
c            3.64879000072050        2.14776000042410        9.99999000197462
c            4.88681000096496        2.84331000056144        9.99999000197462
c            2.44844000048347        4.27421000084399        9.99999000197462
c            3.68507000072766        4.97313000098200        9.99999000197462
c            1.24715000024627        6.40193000126414        9.99999000197462
c            2.48320000049034        7.10129000140224        9.99999000197462
c            0.04793740000947        8.53193000168473       10.00000000197462
c            1.28189000025312        9.22921000182242       10.00000000197462
c           -1.15282000022764       10.66920000210676       10.00000000197462
c            0.08188690001617       11.34260000223973       10.00000000197462
c            7.29811000144110        0.01966450000388       10.00000000197462
c            8.53282000168491        0.69307300013685       10.00000000197462
c            6.09811000120415        2.13304000042120        9.99999000197462
c            7.33206000144780        2.83032000055888       10.00000000197462
c            4.89680000096693        4.26096000084137        9.99999000197462
c            6.13285000121101        4.96032000097947        9.99999000197462
c            3.69493000072961        6.38913000126161        9.99999000197462
c            4.93156000097380        7.08804000139962        9.99999000197462
c            2.49319000049231        8.51894000168217        9.99999000197462
c            3.73121000073677        9.21449000181951       10.00000000197462
c            1.28907000025454       10.65810000210457       10.00000000197462
c            2.53719000050100       11.32890000223703       10.00000000197462
c            9.75794000192682        0.00529256000105       10.00000000197462
c           10.95680000216355        0.69485200013721        9.99999000197462
c            8.54570000168745        2.11512000041766       10.00000000197462
c            9.78429000193203        2.81701000055625       10.00000000197462
c            7.34310000144998        4.24561000083835       10.00000000197462
c            8.58862000169592        4.94817000097708       10.00000000197462
c            6.14072000121256        6.37590000125900        9.99999000197462
c            7.38828000145890        7.07726000139749       10.00000000197462
c            4.93639000097475        8.50679000167977        9.99999000197462
c            6.18859000122201        9.20327000181729       10.00000000197462
c            3.73012000073656       10.64660000210230       10.00000000197462
c            4.99672000098666       11.31950000223517       10.00000000197462
c           10.98050000216823        2.07501000040974       10.00000000197462
c            9.77655000193050        4.21918000083313       10.00000000197462
c            8.57252000169275        6.35692000125525       10.00000000197462
c            7.36548000145440        8.49417000167728       10.00000000197462
c            6.15905000121618       10.63700000210041        9.99999000197462
h           -2.37059000046810       12.43720000245587        9.99999000197462
h            0.08539460001686       12.42370000245321       10.00000000197462
h            2.53868000050129       12.41030000245056       10.00000000197462
h            4.98976000098529       12.40050000244863       10.00000000197462
h            2.39024000047198       -1.03827000020502       10.00000000197462
h            4.84132000095597       -1.04804000020695       10.00000000197462
h            7.29461000144041       -1.06149000020961       10.00000000197462
h            9.75059000192537       -1.07493000021226       10.00000000197462
h            0.27360100005403        0.20428200004034       10.00000000197462
h           -0.92935400018351        2.34003000046207       10.00000000197462
h           -2.13576000042173        4.47660000088396       10.00000000197462
h           -3.34023000065957        6.61524000130626       10.00000000197462
h           -4.54231000089693        8.75807000172939       10.00000000197462
h           11.92230000235420        2.60419000051423       10.00000000197462
h           10.72020000211683        4.74702000093736       10.00000000197462
h            9.51576000187900        6.88565000135965       10.00000000197462
h            8.30935000164078        9.02222000178155       10.00000000197462
h            7.10640000140324       11.15800000220328       10.00000000197462
h           -4.50778000089011       11.21660000221486       10.00000000197462
h           11.88780000234739        0.14566200002876       10.00000000197462
81
 energy: -145.026500773979 gnorm: 0.001057052912 xtb: 6.7.1 (edcfbbe)
c           -1.99848760975323        0.88006572113072       -0.07695123754147
o           -2.91567978220791        0.21767874044748        0.09158397804521
o           -1.08471110027522        1.54564910423460       -0.25060335601098
c            1.22109771421800        0.72543192855942        9.99995350668346
c            0.01463309867068        2.86828343492145        9.99992894553169
c           -1.19250824584224        5.00549649240651        9.99995451835442
c           -2.39671776785296        7.14323222893350        9.99997816948149
c           -3.60089800642819        9.28736480654382       10.00000353586687
c            2.38339630792026        0.04297771594000        9.99998718773663
c            3.64997594387182        0.71573469866358        9.99997317363584
c            1.19148880927738        2.15912927278172        9.99992800766270
c            2.44369353490354        2.85562064525445        9.99993980653249
c           -0.00828033340145        4.28512592066656        9.99992863340601
c            1.23925591102491        4.98655179396814        9.99993996986274
c           -1.20876252785602        6.41423350791415        9.99995814372428
c            0.03671019112728        7.11690006466129        9.99996396159749
c           -2.40464161068424        8.54544440531806        9.99999022178280
c           -1.16600740412144        9.24746403399581        9.99998571060283
c           -3.57712794990258       10.66760055092057       10.00001640645288
c           -2.37825573311836       11.35715551875758       10.00000522853929
c            4.84282750501720        0.03333693234689        9.99999671194855
c            6.09106147224042        0.70396127646092        9.99999381131005
c            3.64891403569879        2.14783068440449        9.99995995448182
c            4.88695813481761        2.84324810944366        9.99998326434033
c            2.44843735975332        4.27435022720827        9.99995283877493
c            3.68512772723750        4.97312252689030        9.99998227432951
c            1.24700614372356        6.40215044311277        9.99996674607923
c            2.48312315993999        7.10134592652258        9.99999030839145
c            0.04765788463539        8.53223265084707        9.99998180956456
c            1.28171450852286        9.22937705731770        9.99999272810386
c           -1.15307078921756       10.66958385737266        9.99999443963028
c            0.08177311127901       11.34282143713864        9.99999359452948
c            7.29822885997705        0.01942676954586       10.00000113709589
c            8.53306967747127        0.69266834084330       10.00000383688494
c            6.09828483950932        2.13287343970783        9.99999209566047
c            7.33233722385069        2.83002280880114        9.99999974148004
c            4.89687416975669        4.26090650511908        9.99999118397262
c            6.13298976853122        4.96010361601731       10.00000114339367
c            3.69487121313296        6.38913088651253        9.99999457716941
c            4.93156246715644        7.08790270031119       10.00000596982422
c            2.49304363282543        8.51900508127828        9.99999794939573
c            3.73109093208220        9.21441928141774       10.00000584283744
c            1.28894378602479       10.65828889965202        9.99999471298193
c            2.53717872441689       11.32890609285912        9.99999952709544
c            9.75825605900432        0.00509632494925       10.00000827191681
c           10.95712758124318        0.69465386966107       10.00001043894149
c            8.54599866597846        2.11478818680100       10.00000215864201
c            9.78463040015318        2.81681757495545       10.00000224486001
c            7.34328281301695        4.24535382700437       10.00000311637566
c            8.58875100232924        4.94802889093122       10.00000214202781
c            6.14074320709713        6.37570113258556       10.00000528017611
c            7.38827547548922        7.07713206595914       10.00000486490100
c            4.93631135609725        8.50663202368536       10.00000722558779
c            6.18851845701645        9.20312570899865       10.00000685142292
c            3.73003710461539       10.64652031081143       10.00000166750730
c            4.99661557059721       11.31927041952941       10.00000561274794
c           10.98088651600056        2.07489658234798       10.00000605719465
c            9.77670734846108        4.21902880168357        9.99999995053478
c            8.57250077846781        6.35676095355833       10.00000296765435
c            7.36537105973799        8.49396847634096       10.00000430735573
c            6.15891252791274       10.63681501232630       10.00000911611931
h           -2.37175688705932       12.43741795484113       10.00001365298244
h            0.08513841230302       12.42401410741964        9.99999917555786
h            2.53875100595358       12.41031215463782        9.99998823740771
h            4.99013091483055       12.40025133397414        9.99997524270174
h            2.38988100475179       -1.03801107617287       10.00014639220952
h            4.84125181658293       -1.04807338330794       10.00005271458361
h            7.29486703882472       -1.06176285571297       10.00001162540341
h            9.75175356654094       -1.07516861668195        9.99999767941816
h            0.27400730303753        0.20424826444916       10.00002204721316
h           -0.92899091502286        2.34005948593856       10.00011649864184
h           -2.13545496554428        4.47655289356931       10.00009925801587
h           -3.33999988413263        6.61505907381408       10.00007416706076
h           -4.54280364852385        8.75834313055909       10.00001257650539
h           11.92278359652963        2.60392250496509        9.99998187991369
h           10.71998012567513        4.74720656150663        9.99997917893206
h            9.51543667606169        6.88569965422689        9.99997193993051
h            8.30898613673856        9.02217897643750        9.99997147670080
h            7.10597905351504       11.15800622848985        9.99998947049324
h           -4.50766053009601       11.21716259737157       10.00000089012100
h           11.88766348351152        0.14510745841875        9.99999266499311
81
 energy: -145.026445888970 gnorm: 0.007799809089 xtb: 6.7.1 (edcfbbe)
c           -2.00287781889813        0.88454146078782       -0.08286270263177
o           -2.91516048658861        0.21446229502216        0.09434346210383
o           -1.08092052972959        1.54429813553713       -0.24767462436218
c            1.22190198554646        0.72660847501633        9.99977303304540
c            0.01525864909444        2.86936861946469        9.99955799760080
c           -1.19244887618354        5.00643638476787        9.99972305975419
c           -2.39764652241252        7.14414713108297        9.99987492910896
c           -3.60304966492287        9.28805403831641       10.00008380630917
c            2.38404267427170        0.04442144583685        9.99993960184792
c            3.65051172372084        0.71606264618625        9.99984057489969
c            1.19192062622450        2.15996324108237        9.99954500224910
c            2.44415846628108        2.85650914484294        9.99966558454912
c           -0.00826995354183        4.28583531094125        9.99955638261003
c            1.23912798990428        4.98767196097763        9.99967037376854
c           -1.20954627879242        6.41504129904662        9.99974607716453
c            0.03569055037428        7.11834215197579        9.99982707672903
c           -2.40658777457137        8.54652972599632        9.99994636205047
c           -1.16770732660563        9.24931504326889        9.99991413518907
c           -3.57889264207170       10.66870119300513       10.00027223462484
c           -2.37999548362859       11.35801313087859       10.00004084274651
c            4.84293419461369        0.03324916886619        9.99999204277128
c            6.09179576369390        0.70279963684016        9.99997034371721
c            3.64960259572512        2.14822309210787        9.99979878989909
c            4.88778186083147        2.84290619614013        9.99994889197019
c            2.44842526976278        4.27512608936031        9.99975013121115
c            3.68545086011836        4.97308275812543        9.99994148875116
c            1.24621485634843        6.40337215464916        9.99984144378195
c            2.48270262811434        7.10165739068239        9.99999391177569
c            0.04611190628503        8.53390863427220        9.99988734726308
c            1.28074381137804        9.23030188307841        9.99995826538100
c           -1.15445241896061       10.67171299938318        9.99997192766293
c            0.08114769215451       11.34404687196714        9.99996841795865
c            7.29888880855950        0.01811828856619       10.00001794166111
c            8.53445200677716        0.69043252106150       10.00003245779984
c            6.09925689382205        2.13195709722877       10.00000953170534
c            7.33387591400976        2.82838182848577       10.00000477837680
c            4.89728495832822        4.26061374987159        9.99999992096509
c            6.13376339993624        4.95890949633883       10.00006751667141
c            3.69454687252902        6.38913983675138       10.00002247058841
c            4.93157782097951        7.08714823840169       10.00009834659870
c            2.49223443949755        8.51936951796065       10.00004580786247
c            3.73043393410563        9.21403245090685       10.00004349816517
c            1.28824441436842       10.65933715383584        9.99997380216194
c            2.53711239483842       11.32894718013297       10.00000510399313
c            9.76000360368710        0.00402356528691       10.00005888965945
c           10.95894986682332        0.69357446796401       10.00012414947709
c            8.54765647683434        2.11295590275551       10.00002122575688
c            9.78651998756742        2.81574885876470       10.00002033513219
c            7.34429072906711        4.24393848244091       10.00002611348424
c            8.58947664217739        4.94723982545960       10.00001967903422
c            6.14087055402968        6.37460231195006       10.00009519257262
c            7.38825477912282        7.07641776833253       10.00003694033282
c            4.93587767164560        8.50576313755820       10.00010815960072
c            6.18812962406367        9.20232451818489       10.00005052141550
c            3.72957740243371       10.64608734342788       10.00001798460415
c            4.99603877156731       11.31800409986080       10.00003939141868
c           10.98303471411141        2.07427563295712       10.00004228400974
c            9.77758396041250        4.21818015211299       10.00000586781385
c            8.57240557024521        6.35586842194942       10.00002427549432
c            7.36478023680147        8.49284589908324       10.00003368128432
c            6.15816854559586       10.63578661872821       10.00011571105750
h           -2.37826068533321       12.43862096778301       10.00015289483361
h            0.08371248972866       12.42574623490106       10.00000446203543
h            2.53914394750506       12.41038748296008        9.99993520616651
h            4.99221123946722       12.39888334579560        9.99985320539833
h            2.38786939537883       -1.03658107296097       10.00093692567911
h            4.84088082842784       -1.04825829503750       10.00034927903754
h            7.29630336388928       -1.06326609361949       10.00008576102944
h            9.75824608866834       -1.07647707966464        9.99999596710195
h            0.27624012964641        0.20405199309760       10.00015997730432
h           -0.92699942007946        2.34021721269454       10.00072383249049
h           -2.13378395580148        4.47629154358045       10.00062608398161
h           -3.33873975939844        6.61405421947414       10.00047379114975
h           -4.54554598026189        8.75986721482170       10.00009427477730
h           11.92547674817046        2.60243370055846        9.99989385599184
h           10.71878116481599        4.74824585128778        9.99987569142169
h            9.51367106674408        6.88598133601419        9.99983160818565
h            8.30699340944747        9.02196613843755        9.99982977294514
h            7.10367458942683       11.15805478767803        9.99993993174919
h           -4.50701060512858       11.22029495901496       10.00002584565389
h           11.88692483886249        0.14202422533970        9.99996359684214
81
 energy: -145.026497127972 gnorm: 0.002417431866 xtb: 6.7.1 (edcfbbe)
c           -2.00078394928728        0.88241226756872       -0.08002816424079
o           -2.91498934883565        0.21627862558623        0.09296714227147
o           -1.08314714657345        1.54465480917651       -0.24902614786177
c            1.22135661131533        0.72587798430676        9.99992036057292
c            0.01483652977113        2.86870890729732        9.99982401904010
c           -1.19250544668180        5.00587717726787        9.99989715994765
c           -2.39706420128152        7.14359997612733        9.99996322456369
c           -3.60170071300685        9.28760725486183       10.00003125116817
c            2.38363245080601        0.04349765804588       10.00001085699339
c            3.65017743590735        0.71584122196043        9.99994368001624
c            1.19163221118300        2.15944683479690        9.99980137230558
c            2.44386516559284        2.85593737900495        9.99982515589559
c           -0.00828272227453        4.28540902795890        9.99981889437086
c            1.23921612905964        4.98696288124164        9.99983311917576
c           -1.20904382934510        6.41455451870038        9.99990291836135
c            0.03635236957892        7.11742810487000        9.99990800065921
c           -2.40535949781081        8.54585664345344        9.99998149301504
c           -1.16663275658916        9.24814054212752        9.99995821605369
c           -3.57779238202771       10.66797534238250       10.00009396970751
c           -2.37888361178525       11.35745696919989       10.00001948749637
c            4.84288421754743        0.03329722134995       10.00001116784801
c            6.09134097209705        0.70353921335180        9.99999402679112
c            3.64916578081668        2.14796925050250        9.99989282168400
c            4.88726358769983        2.84311679164338        9.99996101439531
c            2.44843356382503        4.27462687655337        9.99986378731447
c            3.68524904351659        4.97310508101461        9.99995558113013
c            1.24672178531758        6.40259501645671        9.99990789002900
c            2.48297402882047        7.10145862359043        9.99998004999773
c            0.04708821343252        8.53284229827240        9.99994209919000
c            1.28135390622234        9.22971067030417        9.99997565735298
c           -1.15356996747370       10.67036747193527        9.99998773375326
c            0.08154574529302       11.34326423218709        9.99998792134512
c            7.29847206959274        0.01895721184633       10.00001587907245
c            8.53357313924987        0.69185241095387       10.00001699600012
c            6.09864590940759        2.13254312549098        9.99999590691564
c            7.33290506693256        2.82942408318539       10.00000180766982
c            4.89701993290054        4.26079964641673        9.99998476578726
c            6.13326767672370        4.95966782538323       10.00002214463783
c            3.69474879761096        6.38913691838983        9.99999625869073
c            4.93156587441912        7.08763261494308       10.00003601733719
c            2.49274299260017        8.51914277514909       10.00000846550936
c            3.73084882262948        9.21428282386530       10.00001768587721
c            1.28867881733635       10.65867358026208        9.99998712043489
c            2.53713887249751       11.32893271009934       10.00000150285588
c            9.75888889161188        0.00472704520998       10.00002458753478
c           10.95781134186406        0.69429210701069       10.00003961918065
c            8.54661137760764        2.11412052191792       10.00001070407400
c            9.78532856537650        2.81641153545837       10.00000640265992
c            7.34363731230706        4.24483455801768       10.00001073196649
c            8.58901261605622        4.94771421557734       10.00000568637097
c            6.14078138371068        6.37529651581457       10.00003672126895
c            7.38827241595003        7.07684819691645       10.00001362088632
c            4.93614950252991        8.50632036278952       10.00004339603413
c            6.18838602598744        9.20281872449214       10.00002197452033
c            3.72986096887472       10.64637519488710       10.00000682048001
c            4.99640241485144       11.31881122747405       10.00000713620873
c           10.98168734527391        2.07467841204177       10.00001095424684
c            9.77703590800954        4.21868431041926        9.99999915283457
c            8.57248612400496        6.35639851416545       10.00000516008509
c            7.36517572756366        8.49353287643719       10.00001204014455
c            6.15867270913001       10.63642025424042       10.00003417331386
h           -2.37424935909363       12.43784468633146       10.00006889442841
h            0.08458971335168       12.42462771657483       10.00000436968024
h            2.53888805020623       12.41035273666744        9.99997508781496
h            4.99095109937825       12.39976393022632        9.99994138315046
h            2.38908106307889       -1.03750199712948       10.00040317199046
h            4.84112596269566       -1.04814886720417       10.00016407463147
h            7.29542115706050       -1.06230410887005       10.00004589944206
h            9.75424668095053       -1.07562599169161       10.00000682387672
h            0.27478210006377        0.20415145824237       10.00009223153956
h           -0.92830758913697        2.34010097326972       10.00026574904891
h           -2.13489034367086        4.47645262965284       10.00024718005803
h           -3.33957725985028        6.61467918319472       10.00019596024832
h           -4.54383345298911        8.75891902137039       10.00005551160418
h           11.92379857456139        2.60335617537099        9.99995777185217
h           10.71957871954736        4.74759347547295        9.99994695826379
h            9.51484147504858        6.88580851822224        9.99993044771573
h            8.30829845812874        9.02212407129128        9.99993215946608
h            7.10518857293505       11.15804631752563        9.99997419414985
h           -4.50745635491867       11.21834577301795       10.00004001466789
h           11.88742817086173        0.14393987453487        9.99999267740264
81
 energy: -145.026503325248 gnorm: 0.000064566956 xtb: 6.7.1 (edcfbbe)
c           -1.99966313448861        0.88126594141437       -0.07853040834236
o           -2.91505193767485        0.21719810152720        0.09218550695987
o           -1.08418490191477        1.54490501326916       -0.24968534650431
c            1.22108089877648        0.72552704927412        9.99998306467913
c            0.01462408985350        2.86838996706209        9.99993586442551
c           -1.19253368529995        5.00560519026245        9.99997099500466
c           -2.39677227898780        7.14333153968711       10.00000003602820
c           -3.60104161049020        9.28738072821215       10.00001676545878
c            2.38342138664329        0.04304834735579       10.00003294706167
c            3.65000278520055        0.71572917959184        9.99999629379460
c            1.19148467357550        2.15919345604528        9.99992704832929
c            2.44371654435793        2.85565292272020        9.99991464614604
c           -0.00828977356128        4.28519838936043        9.99993908703807
c            1.23925934484600        4.98661078281260        9.99992010451360
c           -1.20879140144169        6.41431121119475        9.99997502227054
c            0.03668315609808        7.11697363781937        9.99995400219729
c           -2.40475196831256        8.54552123973116        9.99999877204012
c           -1.16610249551830        9.24755664092079        9.99998370366471
c           -3.57725056926184       10.66760472399967       10.00002607416458
c           -2.37832807470180       11.35717534238121       10.00001652842264
c            4.84285383774064        0.03331871171567       10.00002694082957
c            6.09111159109600        0.70390272895510       10.00000822609069
c            3.64894414390948        2.14784326408531        9.99994734967798
c            4.88700514908222        2.84321788765904        9.99996556546446
c            2.44843513306722        4.27437870778052        9.99992078527257
c            3.68514860616821        4.97311516433392        9.99995317673432
c            1.24697344563074        6.40220968640202        9.99994350818707
c            2.48311082830828        7.10136073146961        9.99996609635515
c            0.04757016113978        8.53231419450408        9.99997163771446
c            1.28165737417717        9.22941765177630        9.99998195802662
c           -1.15313198627656       10.66970325766473        9.99999777165549
c            0.08174794394670       11.34287872548071       10.00000010924706
c            7.29826156434926        0.01936958877423       10.00001852499430
c            8.53313898524490        0.69255184091097       10.00000987011584
c            6.09834211305723        2.13283338280177        9.99998904992245
c            7.33242677174732        2.82993940781906        9.99999795820976
c            4.89688609523581        4.26089120934588        9.99996941913149
c            6.13302188330034        4.96004373157423        9.99999292628968
c            3.69484880738901        6.38913656001244        9.99997418060371
c            4.93156176393842        7.08787400358391        9.99999757816400
c            2.49299605135953        8.51903318781280        9.99998426726877
c            3.73105749985325        9.21440779487349        9.99999952627059
c            1.28889864380697       10.65834703565160        9.99999432437621
c            2.53715628440757       11.32892744872472       10.00000014373065
c            9.75833394724867        0.00508038035970       10.00001135608333
c           10.95725288338246        0.69465865887756       10.00000493709034
c            8.54609774294893        2.11469852930076       10.00000336841340
c            9.78474154091010        2.81674144803789        9.99999917899466
c            7.34331156296674        4.24527970242057        9.99999891774146
c            8.58878089092656        4.94795041357013        9.99999903509201
c            6.14073732202638        6.37564147203457       10.00000158669415
c            7.38828194509827        7.07706099391975       10.00000244423538
c            4.93628538943963        8.50659830972563       10.00000455945344
c            6.18851473806291        9.20306242491543       10.00000411924120
c            3.73000798591747       10.64652033115553       10.00000048168364