81
 energy: -145.026501870250 gnorm: 0.001021797801 xtb: 6.7.1 (edcfbbe)
c           -1.99969000039486        0.88131900017403       -0.07847360001550
o           -2.91478000057556        0.21722000004289        0.09232520001823
o           -1.08443000021413        1.54483000030505       -0.24988200004934
c            1.22095000024109        0.72522100014321        9.99999000197462
c            0.01451840000287        2.86809000056634       10.00000000197462
c           -1.19252000023548        5.00533000098836       10.00000000197462
c           -2.39655000047323        7.14307000141048       10.00000000197462
c           -3.60051000071096        9.28724000183388        9.99999000197462
c            2.38328000047061        0.04271680000844       10.00000000197462
c            3.64988000072071        0.71567500014132       10.00000000197462
c            1.19141000023526        2.15898000042632       10.00000000197462
c            2.44361000048252        2.85546000056385        9.99999000197462
c           -0.00828224000164        4.28500000084612       10.00000000197462
c            1.23928000024471        4.98635000098461        9.99999000197462
c           -1.20862000023866        6.41409000126654       10.00000000197462
c            0.03689610000729        7.11664000140527        9.99999000197462
c           -2.40429000047476        8.54525000168736       10.00000000197462
c           -1.16570000023018        9.24713000182596       10.00000000197462
c           -3.57681000070628       10.66740000210641        9.99997000197462
c           -2.37794000046955       11.35700000224258       10.00000000197462
c            4.84281000095627        0.03335280000659       10.00000000197462
c            6.09093000120273        0.70417200013905       10.00000000197462
c            3.64879000072050        2.14776000042410        9.99999000197462
c            4.88681000096496        2.84331000056144        9.99999000197462
c            2.44844000048347        4.27421000084399        9.99999000197462
c            3.68507000072766        4.97313000098200        9.99999000197462
c            1.24715000024627        6.40193000126414        9.99999000197462
c            2.48320000049034        7.10129000140224        9.99999000197462
c            0.04793740000947        8.53193000168473       10.00000000197462
c            1.28189000025312        9.22921000182242       10.00000000197462
c           -1.15282000022764       10.66920000210676       10.00000000197462
c            0.08188690001617       11.34260000223973       10.00000000197462
c            7.29811000144110        0.01966450000388       10.00000000197462
c            8.53282000168491        0.69307300013685       10.00000000197462
c            6.09811000120415        2.13304000042120        9.99999000197462
c            7.33206000144780        2.83032000055888       10.00000000197462
c            4.89680000096693        4.26096000084137        9.99999000197462
c            6.13285000121101        4.96032000097947        9.99999000197462
c            3.69493000072961        6.38913000126161        9.99999000197462
c            4.93156000097380        7.08804000139962        9.99999000197462
c            2.49319000049231        8.51894000168217        9.99999000197462
c            3.73121000073677        9.21449000181951       10.00000000197462
c            1.28907000025454       10.65810000210457       10.00000000197462
c            2.53719000050100       11.32890000223703       10.00000000197462
c            9.75794000192682        0.00529256000105       10.00000000197462
c           10.95680000216355        0.69485200013721        9.99999000197462
c            8.54570000168745        2.11512000041766       10.00000000197462
c            9.78429000193203        2.81701000055625       10.00000000197462
c            7.34310000144998        4.24561000083835       10.00000000197462
c            8.58862000169592        4.94817000097708       10.00000000197462
c            6.14072000121256        6.37590000125900        9.99999000197462
c            7.38828000145890        7.07726000139749       10.00000000197462
c            4.93639000097475        8.50679000167977        9.99999000197462
c            6.18859000122201        9.20327000181729       10.00000000197462
c            3.73012000073656       10.64660000210230       10.00000000197462
c            4.99672000098666       11.31950000223517       10.00000000197462
c           10.98050000216823        2.07501000040974       10.00000000197462
c            9.77655000193050        4.21918000083313       10.00000000197462
c            8.57252000169275        6.35692000125525       10.00000000197462
c            7.36548000145440        8.49417000167728       10.00000000197462
c            6.15905000121618       10.63700000210041        9.99999000197462
h           -2.37059000046810       12.43720000245587        9.99999000197462
h            0.08539460001686       12.42370000245321       10.00000000197462
h            2.53868000050129       12.41030000245056       10.00000000197462
h            4.98976000098529       12.40050000244863       10.00000000197462
h            2.39024000047198       -1.03827000020502       10.00000000197462
h            4.84132000095597       -1.04804000020695       10.00000000197462
h            7.29461000144041       -1.06149000020961       10.00000000197462
h            9.75059000192537       -1.07493000021226       10.00000000197462
h            0.27360100005403        0.20428200004034       10.00000000197462
h           -0.92935400018351        2.34003000046207       10.00000000197462
h           -2.13576000042173        4.47660000088396       10.00000000197462
h           -3.34023000065957        6.61524000130626       10.00000000197462
h           -4.54231000089693        8.75807000172939       10.00000000197462
h           11.92230000235420        2.60419000051423       10.00000000197462
h           10.72020000211683        4.74702000093736       10.00000000197462
h            9.51576000187900        6.88565000135965       10.00000000197462
h            8.30935000164078        9.02222000178155       10.00000000197462
h            7.10640000140324       11.15800000220328       10.00000000197462
h           -4.50778000089011       11.21660000221486       10.00000000197462
h           11.88780000234739        0.14566200002876       10.00000000197462
81
 energy: -145.026500773979 gnorm: 0.001057052912 xtb: 6.7.1 (edcfbbe)
c           -1.99848760975323        0.88006572113072       -0.07695123754147
o           -2.91567978220791        0.21767874044748        0.09158397804521
o           -1.08471110027522        1.54564910423460       -0.25060335601098
c            1.22109771421799        0.72543192855943        9.99995350668344
c            0.01463309867066        2.86828343492144        9.99992894553180
c           -1.19250824584224        5.00549649240651        9.99995451835451
c           -2.39671776785294        7.14323222893346        9.99997816948146
c           -3.60089800642821        9.28736480654382       10.00000353586677
c            2.38339630792026        0.04297771594002        9.99998718773655
c            3.64997594387182        0.71573469866359        9.99997317363577
c            1.19148880927738        2.15912927278172        9.99992800766272
c            2.44369353490353        2.85562064525445        9.99993980653246
c           -0.00828033340146        4.28512592066654        9.99992863340609
c            1.23925591102490        4.98655179396814        9.99993996986274
c           -1.20876252785600        6.41423350791414        9.99995814372430
c            0.03671019112728        7.11690006466130        9.99996396159748
c           -2.40464161068425        8.54544440531804        9.99999022178275
c           -1.16600740412145        9.24746403399582        9.99998571060283
c           -3.57712794990258       10.66760055092057       10.00001640645286
c           -2.37825573311837       11.35715551875760       10.00000522853938
c            4.84282750501720        0.03333693234689        9.99999671194851
c            6.09106147224043        0.70396127646091        9.99999381131005
c            3.64891403569878        2.14783068440451        9.99995995448177
c            4.88695813481761        2.84324810944367        9.99998326434028
c            2.44843735975331        4.27435022720827        9.99995283877490
c            3.68512772723749        4.97312252689031        9.99998227432945
c            1.24700614372355        6.40215044311277        9.99996674607920
c            2.48312315993998        7.10134592652258        9.99999030839139
c            0.04765788463538        8.53223265084708        9.99998180956455
c            1.28171450852285        9.22937705731769        9.99999272810383
c           -1.15307078921755       10.66958385737269        9.99999443963034
c            0.08177311127904       11.34282143713865        9.99999359452956
c            7.29822885997708        0.01942676954587       10.00000113709598
c            8.53306967747128        0.69266834084332       10.00000383688500
c            6.09828483950931        2.13287343970782        9.99999209566045
c            7.33233722385067        2.83002280880115        9.99999974148002
c            4.89687416975668        4.26090650511909        9.99999118397256
c            6.13298976853121        4.96010361601731       10.00000114339364
c            3.69487121313295        6.38913088651254        9.99999457716936
c            4.93156246715643        7.08790270031120       10.00000596982419
c            2.49304363282543        8.51900508127828        9.99999794939568
c            3.73109093208219        9.21441928141775       10.00000584283739
c            1.28894378602480       10.65828889965201        9.99999471298193
c            2.53717872441689       11.32890609285912        9.99999952709541
c            9.75825605900432        0.00509632494927       10.00000827191689
c           10.95712758124318        0.69465386966107       10.00001043894147
c            8.54599866597845        2.11478818680101       10.00000215864201
c            9.78463040015316        2.81681757495543       10.00000224485996
c            7.34328281301695        4.24535382700438       10.00000311637565
c            8.58875100232926        4.94802889093122       10.00000214202783
c            6.14074320709711        6.37570113258556       10.00000528017611
c            7.38827547548920        7.07713206595913       10.00000486490108
c            4.93631135609724        8.50663202368537       10.00000722558776
c            6.18851845701644        9.20312570899866       10.00000685142295
c            3.73003710461539       10.64652031081144       10.00000166750724
c            4.99661557059721       11.31927041952943       10.00000561274787
c           10.98088651600055        2.07489658234798       10.00000605719455
c            9.77670734846110        4.21902880168353        9.99999995053475
c            8.57250077846781        6.35676095355832       10.00000296765445
c            7.36537105973797        8.49396847634095       10.00000430735583
c            6.15891252791274       10.63681501232631       10.00000911611929
h           -2.37175688705937       12.43741795484116       10.00001365298261
h            0.08513841230317       12.42401410741965        9.99999917555800
h            2.53875100595354       12.41031215463782        9.99998823740768
h            4.99013091483055       12.40025133397416        9.99997524270161
h            2.38988100475180       -1.03801107617285       10.00014639220940
h            4.84125181658290       -1.04807338330793       10.00005271458358
h            7.29486703882487       -1.06176285571296       10.00001162540356
h            9.75175356654090       -1.07516861668193        9.99999767941834
h            0.27400730303753        0.20424826444918       10.00002204721315
h           -0.92899091502286        2.34005948593852       10.00011649864202
h           -2.13545496554429        4.47655289356933       10.00009925801604
h           -3.33999988413255        6.61505907381394       10.00007416706072
h           -4.54280364852388        8.75834313055912       10.00001257650519
h           11.92278359652959        2.60392250496512        9.99998187991349
h           10.71998012567521        4.74720656150648        9.99997917893202
h            9.51543667606168        6.88569965422692        9.99997193993068
h            8.30898613673855        9.02217897643746        9.99997147670098
h            7.10597905351504       11.15800622848987        9.99998947049323
h           -4.50766053009601       11.21716259737157       10.00000089012096
h           11.88766348351152        0.14510745841875        9.99999266499307
81
 energy: -145.026445888970 gnorm: 0.007799809089 xtb: 6.7.1 (edcfbbe)
c           -2.00287781889813        0.88454146078782       -0.08286270263177
o           -2.91516048658861        0.21446229502216        0.09434346210383
o           -1.08092052972959        1.54429813553713       -0.24767462436218
c            1.22190198554609        0.72660847501635        9.99977303304444
c            0.01525864909437        2.86936861946385        9.99955799760055
c           -1.19244887618373        5.00643638476701        9.99972305975529
c           -2.39764652241225        7.14414713108244        9.99987492910884
c           -3.60304966492270        9.28805403831642       10.00008380631001
c            2.38404267427132        0.04442144583685        9.99993960184772
c            3.65051172372066        0.71606264618645        9.99984057490080
c            1.19192062622468        2.15996324108228        9.99954500224789
c            2.44415846628115        2.85650914484317        9.99966558454861
c           -0.00826995354201        4.28583531094061        9.99955638261098
c            1.23912798990396        4.98767196097770        9.99967037376901
c           -1.20954627879228        6.41504129904611        9.99974607716492
c            0.03569055037415        7.11834215197605        9.99982707672869
c           -2.40658777457126        8.54652972599616        9.99994636205050
c           -1.16770732660565        9.24931504326950        9.99991413518832
c           -3.57889264207128       10.66870119300528       10.00027223462609
c           -2.37999548362852       11.35801313087953       10.00004084274735
c            4.84293419461358        0.03324916886645        9.99999204277245
c            6.09179576369402        0.70279963684046        9.99997034371753
c            3.64960259572524        2.14822309210814        9.99979878989964
c            4.88778186083159        2.84290619614049        9.99994889197040
c            2.44842526976264        4.27512608936061        9.99975013121097
c            3.68545086011823        4.97308275812581        9.99994148875092
c            1.24621485634828        6.40337215464942        9.99984144378201
c            2.48270262811425        7.10165739068276        9.99999391177551
c            0.04611190628501        8.53390863427266        9.99988734726194
c            1.28074381137816        9.23030188307877        9.99995826538071
c           -1.15445241896045       10.67171299938408        9.99997192766270
c            0.08114769215490       11.34404687196782        9.99996841795833
c            7.29888880855990        0.01811828856687       10.00001794166079
c            8.53445200677732        0.69043252106240       10.00003245779961
c            6.09925689382217        2.13195709722913       10.00000953170505
c            7.33387591400975        2.82838182848624       10.00000477837566
c            4.89728495832813        4.26061374987195        9.99999992096490
c            6.13376339993609        4.95890949633910       10.00006751667147
c            3.69454687252890        6.38913983675177       10.00002247058817
c            4.93157782097938        7.08714823840199       10.00009834659852
c            2.49223443949766        8.51936951796100       10.00004580786267
c            3.73043393410575        9.21403245090713       10.00004349816572
c            1.28824441436853       10.65933715383614        9.99997380216226
c            2.53711239483830       11.32894718013322       10.00000510399430
c            9.76000360368717        0.00402356528786       10.00005888966029
c           10.95894986682374        0.69357446796416       10.00012414947834
c            8.54765647683432        2.11295590275613       10.00002122575614
c            9.78651998756754        2.81574885876454       10.00002033513222
c            7.34429072906699        4.24393848244117       10.00002611348390
c            8.58947664217753        4.94723982545908       10.00001967903461
c            6.14087055402936        6.37460231195014       10.00009519257309
c            7.38825477912264        7.07641776833189       10.00003694033376
c            4.93587767164567        8.50576313755844       10.00010815960021
c            6.18812962406385        9.20232451818480       10.00005052141430
c            3.72957740243353       10.64608734342807       10.00001798460525
c            4.99603877156693       11.31800409986080       10.00003939141847
c           10.98303471411158        2.07427563295713       10.00004228401059
c            9.77758396041278        4.21818015211246       10.00000586781373
c            8.57240557024502        6.35586842194856       10.00002427549542
c            7.36478023680140        8.49284589908240       10.00003368128407
c            6.15816854559548       10.63578661872823       10.00011571105653
h           -2.37826068533392       12.43862096778421       10.00015289483336
h            0.08371248972982       12.42574623490178       10.00000446203559
h            2.53914394750411       12.41038748296030        9.99993520616571
h            4.99221123946640       12.39888334579554        9.99985320539796
h            2.38786939537802       -1.03658107296103       10.00093692567874
h            4.84088082842688       -1.04825829503728       10.00034927903674
h            7.29630336389044       -1.06326609361877       10.00008576102961
h            9.75824608866763       -1.07647707966345        9.99999596710171
h            0.27624012964549        0.20405199309830       10.00015997730512
h           -0.92699942007885        2.34021721269208       10.00072383249098
h           -2.13378395580123        4.47629154357841       10.00062608398111
h           -3.33873975939739        6.61405421947211       10.00047379114948
h           -4.54554598026192        8.75986721482179       10.00009427477652
h           11.92547674817042        2.60243370055855        9.99989385599107
h           10.71878116481704        4.74824585128575        9.99987569142142
h            9.51367106674432        6.88598133601215        9.99983160818515
h            8.30699340944808        9.02196613843509        9.99982977294563
h            7.10367458942590       11.15805478767873        9.99993993174999
h           -4.50701060512817       11.22029495901486       10.00002584565307
h           11.88692483886290        0.14202422533960        9.99996359684132
81
 energy: -145.026497127972 gnorm: 0.002417431866 xtb: 6.7.1 (edcfbbe)
c           -2.00078394928728        0.88241226756872       -0.08002816424079
o           -2.91498934883565        0.21627862558623        0.09296714227147
o           -1.08314714657345        1.54465480917651       -0.24902614786177
c            1.22135661131533        0.72587798430747        9.99992036056843
c            0.01483652977240        2.86870890729542        9.99982401903636
c           -1.19250544667947        5.00587717726523        9.99989715995086
c           -2.39706420128128        7.14359997612434        9.99996322456368
c           -3.60170071300616        9.28760725485986       10.00003125117504
c            2.38363245080421        0.04349765804710       10.00001085699423
c            3.65017743590774        0.71584122196018        9.99994368002375
c            1.19163221118312        2.15944683479783        9.99980137229909
c            2.44386516559339        2.85593737900560        9.99982515589401
c           -0.00828272227300        4.28540902795786        9.99981889437392
c            1.23921612906004        4.98696288124217        9.99983311917817
c           -1.20904382934418        6.41455451869854        9.99990291836250
c            0.03635236957796        7.11742810487075        9.99990800065749
c           -2.40535949780985        8.54585664345146        9.99998149301601
c           -1.16663275659015        9.24814054212842        9.99995821604941
c           -3.57779238202723       10.66797534238109       10.00009396971430
c           -2.37888361178621       11.35745696920015       10.00001948749807
c            4.84288421754701        0.03329722135094       10.00001116785551
c            6.09134097209743        0.70353921335356        9.99999402679256
c            3.64916578081522        2.14796925050324        9.99989282168831
c            4.88726358769976        2.84311679164325        9.99996101439776
c            2.44843356382485        4.27462687655503        9.99986378731452
c            3.68524904351708        4.97310508101472        9.99995558113041
c            1.24672178531722        6.40259501645806        9.99990789002971
c            2.48297402881984        7.10145862359042        9.99998004999820
c            0.04708821343243        8.53284229827394        9.99994209918440
c            1.28135390622103        9.22971067030551        9.99997565735199
c           -1.15356996747339       10.67036747193683        9.99998773375015
c            0.08154574529178       11.34326423218996        9.99998792134143
c            7.29847206959162        0.01895721184926       10.00001587906875
c            8.53357313925008        0.69185241095535       10.00001699599700
c            6.09864590940644        2.13254312549249        9.99999590691466
c            7.33290506693232        2.82942408318673       10.00000180766423
c            4.89701993290010        4.26079964641698        9.99998476578773
c            6.13326767672316        4.95966782538431       10.00002214463854
c            3.69474879761165        6.38913691839024        9.99999625869101
c            4.93156587441877        7.08763261494448       10.00003601733724
c            2.49274299260030        8.51914277514919       10.00000846551179
c            3.73084882262786        9.21428282386588       10.00001768588150
c            1.28867881733687       10.65867358026395        9.99998712043632
c            2.53713887249697       11.32893271010027       10.00000150286337
c            9.75888889161098        0.00472704521029       10.00002458753647
c           10.95781134186449        0.69429210700922       10.00003961918745
c            8.54661137760674        2.11412052191894       10.00001070406973
c            9.78532856537741        2.81641153545628       10.00000640266090
c            7.34363731230621        4.24483455801863       10.00001073196477
c            8.58901261605707        4.94771421557533       10.00000568637212
c            6.14078138371121        6.37529651581533       10.00003672127135
c            7.38827241595148        7.07684819691524       10.00001362088937
c            4.93614950253059        8.50632036279037       10.00004339603255
c            6.18838602598747        9.20281872449295       10.00002197451383
c            3.72986096887523       10.64637519488694       10.00000682048751
c            4.99640241484956       11.31881122747522       10.00000713620958
c           10.98168734527463        2.07467841203986       10.00001095425372
c            9.77703590800980        4.21868431041638        9.99999915283456
c            8.57248612400731        6.35639851416293       10.00000516008830
c            7.36517572756496        8.49353287643540       10.00001204014080
c            6.15867270913006       10.63642025424119       10.00003417330937
h           -2.37424935909462       12.43784468633183       10.00006889442244
h            0.08458971334860       12.42462771657834       10.00000436967751
h            2.53888805020900       12.41035273666799        9.99997508781290
h            4.99095109937489       12.39976393022764        9.99994138315125
h            2.38908106307552       -1.03750199712817       10.00040317199123
h            4.84112596269843       -1.04814886720364       10.00016407462940
h            7.29542115705741       -1.06230410886655       10.00004589943932
h            9.75424668094953       -1.07562599169125       10.00000682387074
h            0.27478210006222        0.20415145824511       10.00009223154292
h           -0.92830758913519        2.34010097326608       10.00026574904703
h           -2.13489034366772        4.47645262964948       10.00024718005172
h           -3.33957725985069        6.61467918319220       10.00019596024791
h           -4.54383345298840        8.75891902136886       10.00005551160594
h           11.92379857456210        2.60335617536946        9.99995777185393
h           10.71957871954693        4.74759347547041        9.99994695826338
h            9.51484147505171        6.88580851821886        9.99993044770942
h            8.30829845813051        9.02212407128762        9.99993215946419
h            7.10518857293348       11.15804631752836        9.99997419415321
h           -4.50745635491849       11.21834577301650       10.00004001466539
h           11.88742817086192        0.14393987453341        9.99999267740014
81
 energy: -145.026503325248 gnorm: 0.000064566956 xtb: 6.7.1 (edcfbbe)
c           -1.99966313448861        0.88126594141437       -0.07853040834236
o           -2.91505193767485        0.21719810152720        0.09218550695987
o           -1.08418490191477        1.54490501326916       -0.24968534650431
c            1.22108089877594        0.72552704927390        9.99998306467926
c            0.01462408985431        2.86838996706120        9.99993586442358
c           -1.19253368529847        5.00560519026148        9.99997099499977
c           -2.39677227898850        7.14333153968546       10.00000003602552
c           -3.60104161048951        9.28738072821075       10.00001676546472
c            2.38342138664251        0.04304834735661       10.00003294706463
c            3.65000278520096        0.71572917959218        9.99999629379594
c            1.19148467357512        2.15919345604586        9.99992704832760
c            2.44371654435823        2.85565292272060        9.99991464614747
c           -0.00828977355996        4.28519838936037        9.99993908703408
c            1.23925934484699        4.98661078281347        9.99992010451221
c           -1.20879140144149        6.41431121119391        9.99997502226508
c            0.03668315609741        7.11697363782023        9.99995400219306
c           -2.40475196831222        8.54552123972959        9.99999877204173
c           -1.16610249551904        9.24755664092092        9.99998370366407
c           -3.57725056926185       10.66760472399840       10.00002607416689
c           -2.37832807470310       11.35717534238113       10.00001652841985
c            4.84285383774003        0.03331871171670       10.00002694083078
c            6.09111159109647        0.70390272895618       10.00000822608943
c            3.64894414390868        2.14784326408585        9.99994734968080
c            4.88700514908235        2.84321788765880        9.99996556546666
c            2.44843513306764        4.27437870778193        9.99992078527515
c            3.68514860616882        4.97311516433400        9.99995317673906
c            1.24697344563111        6.40220968640310        9.99994350818555
c            2.48311082830823        7.10136073146956        9.99996609635824
c            0.04757016114028        8.53231419450470        9.99997163771054
c            1.28165737417607        9.22941765177721        9.99998195802527
c           -1.15313198627688       10.66970325766535        9.99999777165439
c            0.08174794394547       11.34287872548160       10.00000010924419
c            7.29826156434811        0.01936958877516       10.00001852499187
c            8.53313898524450        0.69255184091152       10.00000987011451
c            6.09834211305626        2.13283338280281        9.99998904992081
c            7.33242677174770        2.82993940781954        9.99999795820593
c            4.89688609523591        4.26089120934604        9.99996941913458
c            6.13302188330058        4.96004373157511        9.99999292628841
c            3.69484880738977        6.38913656001275        9.99997418060871
c            4.93156176393871        7.08787400358513        9.99999757816678
c            2.49299605135980        8.51903318781274        9.99998426727091
c            3.73105749985232        9.21440779487391        9.99999952627335
c            1.28889864380755       10.65834703565277        9.99999432437479
c            2.53715628440686       11.32892744872570       10.00000014373096
c            9.75833394724743        0.00508038035964       10.00001135608064
c           10.95725288338240        0.69465865887624       10.00000493709288
c            8.54609774294827        2.11469852930098       10.00000336841215
c            9.78474154091041        2.81674144803622        9.99999917899591
c            7.34331156296615        4.24527970242159        9.99999891773717
c            8.58878089092670        4.94795041356917        9.99999903508654
c            6.14073732202747        6.37564147203563       10.00000158669317
c            7.38828194509954        7.07706099391956       10.00000244423118
c            4.93628538944004        8.50659830972618       10.00000455945454
c            6.18851473806246        9.20306242491593       10.00000411923960
c            3.73000798591798       10.64652033115595       10.00000048168556