      -----------------------------------------------------------      
     |                   =====================                   |     
     |                           x T B                           |     
     |                   =====================                   |     
     |                         S. Grimme                         |     
     |          Mulliken Center for Theoretical Chemistry        |     
     |                    University of Bonn                     |     
      -----------------------------------------------------------      

   * xtb version 6.7.1 (edcfbbe) compiled by 'conda@3ef47c1a292c' on 2024-11-25

   xtb is free software: you can redistribute it and/or modify it under
   the terms of the GNU Lesser General Public License as published by
   the Free Software Foundation, either version 3 of the License, or
   (at your option) any later version.
   
   xtb is distributed in the hope that it will be useful,
   but WITHOUT ANY WARRANTY; without even the implied warranty of
   MERCHANTABILITY or FITNESS FOR A PARTICULAR PURPOSE.  See the
   GNU Lesser General Public License for more details.
   
   Cite this work as:
   * C. Bannwarth, E. Caldeweyher, S. Ehlert, A. Hansen, P. Pracht,
     J. Seibert, S. Spicher, S. Grimme, WIREs Comput. Mol. Sci., 2020, 11,
     e01493. DOI: 10.1002/wcms.1493
   
   for GFN2-xTB:
   * C. Bannwarth, S. Ehlert and S. Grimme., J. Chem. Theory Comput., 2019,
     15, 1652-1671. DOI: 10.1021/acs.jctc.8b01176
   for GFN1-xTB:
   * S. Grimme, C. Bannwarth, P. Shushkov, J. Chem. Theory Comput., 2017,
     13, 1989-2009. DOI: 10.1021/acs.jctc.7b00118
   for GFN0-xTB:
   * P. Pracht, E. Caldeweyher, S. Ehlert, S. Grimme, ChemRxiv, 2019, preprint.
     DOI: 10.26434/chemrxiv.8326202.v1
   for GFN-FF:
   * S. Spicher and S. Grimme, Angew. Chem. Int. Ed., 2020, 59, 15665-15673.
     DOI: 10.1002/anie.202004239
   
   for ALPB and GBSA implicit solvation:
   * S. Ehlert, M. Stahn, S. Spicher, S. Grimme, J. Chem. Theory Comput.,
     2021, 17, 4250-4261. DOI: 10.1021/acs.jctc.1c00471
   
   for ddCOSMO and CPCM-X implicit solvation:
   * M. Stahn, S. Ehlert, S. Grimme, J. Phys. Chem. A,
     2023, XX, XXXX-XXXX. DOI: 10.1021/acs.jpca.3c04382
   
   for DFT-D4:
   * E. Caldeweyher, C. Bannwarth and S. Grimme, J. Chem. Phys., 2017,
     147, 034112. DOI: 10.1063/1.4993215
   * E. Caldeweyher, S. Ehlert, A. Hansen, H. Neugebauer, S. Spicher,
     C. Bannwarth and S. Grimme, J. Chem. Phys., 2019, 150, 154122.
     DOI: 10.1063/1.5090222
   * E. Caldeweyher, J.-M. Mewes, S. Ehlert and S. Grimme, Phys. Chem. Chem. Phys.
     2020, 22, 8499-8512. DOI: 10.1039/D0CP00502A
   
   for sTDA-xTB:
   * S. Grimme and C. Bannwarth, J. Chem. Phys., 2016, 145, 054103.
     DOI: 10.1063/1.4959605
   
   in the mass-spec context:
   * V. Asgeirsson, C. Bauer and S. Grimme, Chem. Sci., 2017, 8, 4879.
     DOI: 10.1039/c7sc00601b
   * J. Koopman and S. Grimme, ACS Omega 2019, 4, 12, 15120-15133.
     DOI: 10.1021/acsomega.9b02011
   
   for metadynamics refer to:
   * S. Grimme, J. Chem. Theory Comput., 2019, 155, 2847-2862
     DOI: 10.1021/acs.jctc.9b00143
   
   for SPH calculations refer to:
   * S. Spicher and S. Grimme, J. Chem. Theory Comput., 2021, 17, 1701-1714
     DOI: 10.1021/acs.jctc.0c01306
   
   for ONIOM refer to:
   * C. Plett, A. Katbashev, S. Ehlert, S. Grimme, M. Bursch,
     Phys. Chem. Chem. Phys., 2023, 25, 17860-17868. DOI: 10.1039/D3CP02178E
   
   for DIPRO refer to:
   * J. Kohn, N. Gildemeister, S. Grimme, D. Fazzi, A. Hansen,
     J. Chem. Phys., 2023, just accepted.
   
   for PTB refer to:
   * S. Grimme, M. Mueller, A. Hansen, J. Chem. Phys., 2023, 158, 124111.
     DOI: 10.1063/5.0137838
   
   with help from (in alphabetical order)
   P. Atkinson, C. Bannwarth, F. Bohle, G. Brandenburg, E. Caldeweyher
   M. Checinski, S. Dohm, S. Ehlert, S. Ehrlich, I. Gerasimov, C. Hölzer
   A. Katbashev, J. Kohn, J. Koopman, C. Lavigne, S. Lehtola, F. März, M. Müller,
   F. Musil, H. Neugebauer, J. Pisarek, C. Plett, P. Pracht, F. Pultar,
   J. Seibert, P. Shushkov, S. Spicher, M. Stahn, M. Steiner, T. Strunk,
   J. Stückrath, T. Rose, and J. Unsleber
   
 * started run on 2024/11/28 at 16:27:20.414     
   ID    Z sym.   atoms
    1    8 o      1
    2    1 h      2, 3, 62-81
    3    6 c      4-61

           -------------------------------------------------
          |                Calculation Setup                |
           -------------------------------------------------

          program call               : /home/olli/anaconda3/bin/xtb interaction
          coordinate file            : interaction
          omp threads                :                    16


molecular fragmentation (1/2 indicates fragments):
111222222222222222222222222222222222222222222222222222222222222222222222
222222222
# atoms in fragment 1/2:     3    78
 fragment masses (1/2) :       18.02      716.78
CMA distance (Bohr)    :  23.178
constraining FC (au)   :  0.0500

           -------------------------------------------------
          |                 G F N 2 - x T B                 |
           -------------------------------------------------

        Reference                      10.1021/acs.jctc.8b01176
      * Hamiltonian:
        H0-scaling (s, p, d)           1.850000    2.230000    2.230000
        zeta-weighting                 0.500000
      * Dispersion:
        s8                             2.700000
        a1                             0.520000
        a2                             5.000000
        s9                             5.000000
      * Repulsion:
        kExp                           1.500000    1.000000
        rExp                           1.000000
      * Coulomb:
        alpha                          2.000000
        third order                    shell-resolved
        anisotropic                    true
        a3                             3.000000
        a5                             4.000000
        cn-shift                       1.200000
        cn-exp                         4.000000
        max-rad                        5.000000


          ...................................................
          :                      SETUP                      :
          :.................................................:
          :  # basis functions                 258          :
          :  # atomic orbitals                 258          :
          :  # shells                          140          :
          :  # electrons                       260          :
          :  max. iterations                   250          :
          :  Hamiltonian                  GFN2-xTB          :
          :  restarted?                      false          :
          :  GBSA solvation                  false          :
          :  PC potential                    false          :
          :  electronic temp.          300.0000000     K    :
          :  accuracy                    1.0000000          :
          :  -> integral cutoff          0.2500000E+02      :
          :  -> integral neglect         0.1000000E-07      :
          :  -> SCF convergence          0.1000000E-05 Eh   :
          :  -> wf. convergence          0.1000000E-03 e    :
          :  Broyden damping             0.4000000          :
          :  net charge                          0          :
          :  unpaired electrons                  0          :
          ...................................................

 iter      E             dE          RMSdq      gap      omega  full diag
   1   -142.4562330 -0.142456E+03  0.477E+00    0.31       0.0  T
   2   -142.4831111 -0.268781E-01  0.284E+00    0.30       1.0  T
   3   -142.3917725  0.913386E-01  0.870E-01    0.35       1.0  T
   4   -142.2440164  0.147756E+00  0.126E+00    0.80       1.0  T
   5   -142.4410173 -0.197001E+00  0.583E-01    0.35       1.0  T
   6   -142.4614229 -0.204055E-01  0.448E-01    0.34       1.0  T
   7   -142.4910351 -0.296122E-01  0.786E-02    0.31       1.0  T
   8   -142.4914585 -0.423362E-03  0.317E-02    0.31       1.0  T
   9   -142.4914290  0.294209E-04  0.290E-02    0.31       1.0  T
  10   -142.4915370 -0.107954E-03  0.748E-03    0.31       1.5  T
  11   -142.4915385 -0.149746E-05  0.496E-03    0.31       2.2  T
  12   -142.4915421 -0.361208E-05  0.160E-03    0.31       7.0  T
  13   -142.4915422 -0.116358E-06  0.137E-03    0.31       8.1  T
  14   -142.4915425 -0.284673E-06  0.191E-04    0.31      58.2  T
  15   -142.4915425 -0.505423E-09  0.133E-04    0.31      83.6  T

   *** convergence criteria satisfied after 15 iterations ***

         #    Occupation            Energy/Eh            Energy/eV
      -------------------------------------------------------------
         1        2.0000           -0.6793902             -18.4871
       ...           ...                  ...                  ...
       124        2.0000           -0.3921225             -10.6702
       125        2.0000           -0.3885496             -10.5730
       126        2.0000           -0.3852096             -10.4821
       127        2.0000           -0.3847270             -10.4690
       128        2.0000           -0.3678301             -10.0092
       129        2.0000           -0.3446868              -9.3794
       130        1.9949           -0.3299961              -8.9797 (HOMO)
       131        0.0051           -0.3186686              -8.6714 (LUMO)
       132                         -0.3025359              -8.2324
       133                         -0.2754825              -7.4963
       134                         -0.2532585              -6.8915
       135                         -0.2520614              -6.8589
       ...                                ...                  ...
       258                          0.7775707              21.1588
      -------------------------------------------------------------
                  HL-Gap            0.0113275 Eh            0.3082 eV
             Fermi-level           -0.3243324 Eh           -8.8255 eV

 SCC (total)                   0 d,  0 h,  0 min,  0.686 sec
 SCC setup                      ...        0 min,  0.001 sec (  0.205%)
 Dispersion                     ...        0 min,  0.004 sec (  0.528%)
 classical contributions        ...        0 min,  0.001 sec (  0.193%)
 integral evaluation            ...        0 min,  0.009 sec (  1.268%)
 iterations                     ...        0 min,  0.630 sec ( 91.771%)
 molecular gradient             ...        0 min,  0.036 sec (  5.188%)
 printout                       ...        0 min,  0.006 sec (  0.842%)

         :::::::::::::::::::::::::::::::::::::::::::::::::::::
         ::                     SUMMARY                     ::
         :::::::::::::::::::::::::::::::::::::::::::::::::::::
         :: total energy            -139.788650350758 Eh    ::
         :: gradient norm              0.000754763330 Eh/a0 ::
         :: HOMO-LUMO gap              0.308236063664 eV    ::
         ::.................................................::
         :: SCC energy              -142.494016925571 Eh    ::
         :: -> isotropic ES            0.033467349887 Eh    ::
         :: -> anisotropic ES          0.008108744602 Eh    ::
         :: -> anisotropic XC          0.057409228193 Eh    ::
         :: -> dispersion             -0.148726251868 Eh    ::
         :: repulsion energy           2.705366574814 Eh    ::
         :: add. restraining           0.000000000000 Eh    ::
         :: total charge               0.000000000774 e     ::
         :::::::::::::::::::::::::::::::::::::::::::::::::::::

           -------------------------------------------------
          |                Property Printout                |
           -------------------------------------------------

    * Orbital Energies and Occupations

         #    Occupation            Energy/Eh            Energy/eV
      -------------------------------------------------------------
         1        2.0000           -0.6793902             -18.4871
       ...           ...                  ...                  ...
       118        2.0000           -0.4077544             -11.0956
       119        2.0000           -0.4062047             -11.0534
       120        2.0000           -0.4020983             -10.9417
       121        2.0000           -0.4008589             -10.9079
       122        2.0000           -0.3958873             -10.7726
       123        2.0000           -0.3944461             -10.7334
       124        2.0000           -0.3921225             -10.6702
       125        2.0000           -0.3885496             -10.5730
       126        2.0000           -0.3852096             -10.4821
       127        2.0000           -0.3847270             -10.4690
       128        2.0000           -0.3678301             -10.0092
       129        2.0000           -0.3446868              -9.3794
       130        1.9949           -0.3299961              -8.9797 (HOMO)
       131        0.0051           -0.3186686              -8.6714 (LUMO)
       132                         -0.3025359              -8.2324
       133                         -0.2754825              -7.4963
       134                         -0.2532585              -6.8915
       135                         -0.2520614              -6.8589
       136                         -0.2407571              -6.5513
       137                         -0.2372627              -6.4562
       138                         -0.2308381              -6.2814
       139                         -0.2233833              -6.0786
       140                         -0.2202969              -5.9946
       141                         -0.2141363              -5.8269
       ...                                ...                  ...
       258                          0.7775707              21.1588
      -------------------------------------------------------------
                  HL-Gap            0.0113275 Eh            0.3082 eV
             Fermi-level           -0.3243324 Eh           -8.8255 eV

     #   Z          covCN         q      C6AA      α(0)
     1   8 o        1.611    -0.565    24.358     6.661
     2   1 h        0.805     0.282     0.777     1.384
     3   1 h        0.805     0.282     0.776     1.384
     4   6 c        2.912    -0.035    28.876     8.812
     5   6 c        2.921    -0.044    29.087     8.844
     6   6 c        2.922    -0.045    29.109     8.848
     7   6 c        2.922    -0.045    29.116     8.849
     8   6 c        2.919    -0.037    28.928     8.820
     9   6 c        2.912    -0.035    28.873     8.811
    10   6 c        2.975     0.012    27.749     8.641
    11   6 c        2.975     0.012    27.749     8.641
    12   6 c        2.992     0.001    27.988     8.678
    13   6 c        2.973     0.011    27.762     8.643
    14   6 c        2.993    -0.000    28.025     8.684
    15   6 c        2.973     0.011    27.759     8.642
    16   6 c        2.994    -0.001    28.031     8.685
    17   6 c        2.976     0.013    27.728     8.637
    18   6 c        2.998     0.001    27.991     8.679
    19   6 c        2.910    -0.029    28.716     8.787
    20   6 c        2.920    -0.037    28.925     8.820
    21   6 c        2.921    -0.043    29.073     8.842
    22   6 c        2.973     0.011    27.762     8.643
    23   6 c        2.992     0.001    27.985     8.678
    24   6 c        2.989     0.000    28.017     8.683
    25   6 c        2.989     0.000    28.019     8.683
    26   6 c        2.991    -0.001    28.044     8.687
    27   6 c        2.989     0.000    28.010     8.682
    28   6 c        2.991    -0.001    28.055     8.689
    29   6 c        2.988     0.001    27.986     8.678
    30   6 c        2.994    -0.001    28.033     8.685
    31   6 c        2.976     0.013    27.730     8.638
    32   6 c        2.922    -0.044    29.098     8.846
    33   6 c        2.922    -0.044    29.089     8.845
    34   6 c        2.976     0.013    27.726     8.637
    35   6 c        2.994    -0.000    28.028     8.684
    36   6 c        2.988     0.002    27.983     8.677
    37   6 c        2.991    -0.001    28.053     8.688
    38   6 c        2.989     0.001    28.008     8.681
    39   6 c        2.991    -0.001    28.044     8.687
    40   6 c        2.989     0.000    28.019     8.683
    41   6 c        2.989     0.000    28.018     8.683
    42   6 c        2.992     0.001    27.988     8.678
    43   6 c        2.973     0.011    27.766     8.643
    44   6 c        2.921    -0.043    29.079     8.843
    45   6 c        2.920    -0.037    28.915     8.818
    46   6 c        2.910    -0.028    28.711     8.786
    47   6 c        2.998     0.001    27.987     8.678
    48   6 c        2.976     0.013    27.723     8.637
    49   6 c        2.994    -0.000    28.027     8.684
    50   6 c        2.973     0.012    27.754     8.642
    51   6 c        2.993    -0.000    28.021     8.683
    52   6 c        2.973     0.011    27.758     8.642
    53   6 c        2.992     0.001    27.987     8.678
    54   6 c        2.975     0.012    27.749     8.641
    55   6 c        2.975     0.012    27.752     8.641
    56   6 c        2.912    -0.035    28.875     8.811
    57   6 c        2.919    -0.037    28.917     8.818
    58   6 c        2.922    -0.044    29.104     8.847
    59   6 c        2.922    -0.044    29.098     8.846
    60   6 c        2.921    -0.043    29.080     8.843
    61   6 c        2.912    -0.035    28.874     8.811
    62   1 h        0.926     0.030     2.582     2.513
    63   1 h        0.926     0.031     2.569     2.506
    64   1 h        0.925     0.031     2.569     2.507
    65   1 h        0.926     0.031     2.577     2.510
    66   1 h        0.926     0.031     2.572     2.508
    67   1 h        0.925     0.032     2.564     2.504
    68   1 h        0.926     0.032     2.563     2.503
    69   1 h        0.926     0.031     2.576     2.510
    70   1 h        0.926     0.031     2.576     2.510
    71   1 h        0.925     0.031     2.572     2.508
    72   1 h        0.925     0.031     2.575     2.509
    73   1 h        0.925     0.031     2.574     2.509
    74   1 h        0.926     0.030     2.585     2.514
    75   1 h        0.926     0.031     2.577     2.510
    76   1 h        0.925     0.031     2.566     2.505
    77   1 h        0.925     0.031     2.568     2.506
    78   1 h        0.925     0.031     2.568     2.506
    79   1 h        0.926     0.031     2.576     2.510
    80   1 h        0.926     0.029     2.597     2.520
    81   1 h        0.926     0.030     2.591     2.517

 Mol. C6AA /au·bohr⁶  :     120488.337017
 Mol. C8AA /au·bohr⁸  :    3233338.818805
 Mol. α(0) /au        :        565.504410


Wiberg/Mayer (AO) data.
largest (>0.10) Wiberg bond orders for each atom

 ---------------------------------------------------------------------------
     #   Z sym  total        # sym  WBO       # sym  WBO       # sym  WBO
 ---------------------------------------------------------------------------
     1   8 o    1.840 --     2 h    0.920     3 h    0.920
     2   1 h    0.920 --     1 o    0.920
     3   1 h    0.920 --     1 o    0.920
     4   6 c    3.971 --     9 c    1.695    11 c    1.166    70 h    0.967
     5   6 c    3.881 --    11 c    1.485    13 c    1.240    71 h    0.966
     6   6 c    3.821 --    13 c    1.407    15 c    1.281    72 h    0.967
     7   6 c    3.802 --    15 c    1.360    17 c    1.315    73 h    0.967
     8   6 c    3.843 --    19 c    1.455    17 c    1.290    74 h    0.970
     9   6 c    3.970 --     4 c    1.695    10 c    1.165    66 h    0.967
    10   6 c    3.980 --    21 c    1.483    23 c    1.176     9 c    1.165
    11   6 c    3.977 --     5 c    1.485    12 c    1.173     4 c    1.166
    12   6 c    3.951 --    23 c    1.338    25 c    1.230    11 c    1.173
    13   6 c    3.981 --     6 c    1.407     5 c    1.240    14 c    1.180
    14   6 c    3.948 --    25 c    1.304    27 c    1.244    13 c    1.180
    15   6 c    3.985 --     7 c    1.360     6 c    1.281    16 c    1.186
    16   6 c    3.945 --    27 c    1.292    29 c    1.247    15 c    1.186
    17   6 c    3.986 --     7 c    1.315     8 c    1.290    18 c    1.219
    18   6 c    3.947 --    29 c    1.280    31 c    1.226    17 c    1.219
    19   6 c    3.985 --     8 c    1.455    20 c    1.438    80 h    0.970
    20   6 c    3.838 --    19 c    1.438    31 c    1.304    62 h    0.970
    21   6 c    3.876 --    10 c    1.483    22 c    1.240    67 h    0.966
    22   6 c    3.986 --    33 c    1.396    21 c    1.240    35 c    1.190
    23   6 c    3.945 --    12 c    1.338    24 c    1.225    10 c    1.176
    24   6 c    3.976 --    35 c    1.299    37 c    1.232    23 c    1.225
    25   6 c    3.968 --    14 c    1.304    12 c    1.230    26 c    1.220
    26   6 c    3.974 --    37 c    1.289    39 c    1.238    25 c    1.220
    27   6 c    3.980 --    16 c    1.292    14 c    1.244    28 c    1.222
    28   6 c    3.964 --    39 c    1.289    41 c    1.232    27 c    1.222
    29   6 c    3.986 --    18 c    1.280    16 c    1.247    30 c    1.239
    30   6 c    3.945 --    41 c    1.299    29 c    1.239    43 c    1.190
    31   6 c    3.986 --    20 c    1.304    32 c    1.293    18 c    1.226
    32   6 c    3.820 --    43 c    1.396    31 c    1.293    63 h    0.967
    33   6 c    3.820 --    22 c    1.396    34 c    1.293    68 h    0.967
    34   6 c    3.986 --    45 c    1.304    33 c    1.293    47 c    1.226
    35   6 c    3.945 --    24 c    1.299    36 c    1.239    22 c    1.190
    36   6 c    3.986 --    47 c    1.280    49 c    1.247    35 c    1.239
    37   6 c    3.964 --    26 c    1.289    24 c    1.232    38 c    1.222
    38   6 c    3.980 --    49 c    1.292    51 c    1.244    37 c    1.222
    39   6 c    3.974 --    28 c    1.289    26 c    1.238    40 c    1.220
    40   6 c    3.968 --    51 c    1.304    53 c    1.230    39 c    1.220
    41   6 c    3.976 --    30 c    1.299    28 c    1.232    42 c    1.225
    42   6 c    3.945 --    53 c    1.338    41 c    1.225    55 c    1.176
    43   6 c    3.986 --    32 c    1.396    44 c    1.240    30 c    1.190
    44   6 c    3.876 --    55 c    1.483    43 c    1.240    64 h    0.966
    45   6 c    3.838 --    46 c    1.438    34 c    1.304    69 h    0.970
    46   6 c    3.985 --    57 c    1.455    45 c    1.438    81 h    0.970
    47   6 c    3.947 --    36 c    1.280    34 c    1.226    48 c    1.219
    48   6 c    3.986 --    58 c    1.315    57 c    1.290    47 c    1.219
    49   6 c    3.945 --    38 c    1.292    36 c    1.247    50 c    1.186
    50   6 c    3.985 --    58 c    1.360    59 c    1.281    49 c    1.186
    51   6 c    3.948 --    40 c    1.304    38 c    1.244    52 c    1.180
    52   6 c    3.981 --    59 c    1.407    60 c    1.240    51 c    1.180
    53   6 c    3.951 --    42 c    1.338    40 c    1.230    54 c    1.173
    54   6 c    3.977 --    60 c    1.485    53 c    1.173    61 c    1.166
    55   6 c    3.980 --    44 c    1.483    42 c    1.176    56 c    1.165
    56   6 c    3.970 --    61 c    1.695    55 c    1.165    65 h    0.967
    57   6 c    3.843 --    46 c    1.455    48 c    1.290    75 h    0.970
    58   6 c    3.802 --    50 c    1.360    48 c    1.315    76 h    0.967
    59   6 c    3.821 --    52 c    1.407    50 c    1.281    77 h    0.967
    60   6 c    3.881 --    54 c    1.485    52 c    1.240    78 h    0.966
    61   6 c    3.971 --    56 c    1.695    54 c    1.166    79 h    0.967
    62   1 h    0.998 --    20 c    0.970
    63   1 h    0.998 --    32 c    0.967
    64   1 h    0.998 --    44 c    0.966
    65   1 h    0.998 --    56 c    0.967
    66   1 h    0.998 --     9 c    0.967
    67   1 h    0.998 --    21 c    0.966
    68   1 h    0.998 --    33 c    0.967
    69   1 h    0.998 --    45 c    0.970
    70   1 h    0.998 --     4 c    0.967
    71   1 h    0.998 --     5 c    0.966
    72   1 h    0.998 --     6 c    0.967
    73   1 h    0.998 --     7 c    0.967
    74   1 h    0.998 --     8 c    0.970
    75   1 h    0.998 --    57 c    0.970
    76   1 h    0.998 --    58 c    0.967
    77   1 h    0.998 --    59 c    0.967
    78   1 h    0.998 --    60 c    0.966
    79   1 h    0.998 --    61 c    0.967
    80   1 h    0.998 --    19 c    0.970
    81   1 h    0.998 --    46 c    0.970
 ---------------------------------------------------------------------------

Topologies differ in total number of bonds
Writing topology from bond orders to xtbtopo.mol

molecular dipole:
                 x           y           z       tot (Debye)
 q only:       -0.354       0.354       0.119
   full:       -0.542       0.532       0.173       1.979
molecular quadrupole (traceless):
                xx          xy          yy          xz          yz          zz
 q only:        8.693      -1.903       4.718       2.443      -0.663     -13.411
  q+dip:       25.980      -3.909      20.066       2.442      -0.332     -46.046
   full:       14.004      -3.145       8.847       2.589      -0.169     -22.852


           -------------------------------------------------
          | TOTAL ENERGY             -139.788650350758 Eh   |
          | GRADIENT NORM               0.000754763330 Eh/α |
          | HOMO-LUMO GAP               0.308236063664 eV   |
           -------------------------------------------------

------------------------------------------------------------------------
 * finished run on 2024/11/28 at 16:27:21.129     
------------------------------------------------------------------------
 total:
 * wall-time:     0 d,  0 h,  0 min,  0.715 sec
 *  cpu-time:     0 d,  0 h,  0 min,  2.174 sec
 * ratio c/w:     3.039 speedup
 SCF:
 * wall-time:     0 d,  0 h,  0 min,  0.688 sec
 *  cpu-time:     0 d,  0 h,  0 min,  1.976 sec
 * ratio c/w:     2.873 speedup

