      -----------------------------------------------------------      
     |                   =====================                   |     
     |                           x T B                           |     
     |                   =====================                   |     
     |                         S. Grimme                         |     
     |          Mulliken Center for Theoretical Chemistry        |     
     |                    University of Bonn                     |     
      -----------------------------------------------------------      

   * xtb version 6.7.1 (edcfbbe) compiled by 'conda@3ef47c1a292c' on 2024-11-25

   xtb is free software: you can redistribute it and/or modify it under
   the terms of the GNU Lesser General Public License as published by
   the Free Software Foundation, either version 3 of the License, or
   (at your option) any later version.
   
   xtb is distributed in the hope that it will be useful,
   but WITHOUT ANY WARRANTY; without even the implied warranty of
   MERCHANTABILITY or FITNESS FOR A PARTICULAR PURPOSE.  See the
   GNU Lesser General Public License for more details.
   
   Cite this work as:
   * C. Bannwarth, E. Caldeweyher, S. Ehlert, A. Hansen, P. Pracht,
     J. Seibert, S. Spicher, S. Grimme, WIREs Comput. Mol. Sci., 2020, 11,
     e01493. DOI: 10.1002/wcms.1493
   
   for GFN2-xTB:
   * C. Bannwarth, S. Ehlert and S. Grimme., J. Chem. Theory Comput., 2019,
     15, 1652-1671. DOI: 10.1021/acs.jctc.8b01176
   for GFN1-xTB:
   * S. Grimme, C. Bannwarth, P. Shushkov, J. Chem. Theory Comput., 2017,
     13, 1989-2009. DOI: 10.1021/acs.jctc.7b00118
   for GFN0-xTB:
   * P. Pracht, E. Caldeweyher, S. Ehlert, S. Grimme, ChemRxiv, 2019, preprint.
     DOI: 10.26434/chemrxiv.8326202.v1
   for GFN-FF:
   * S. Spicher and S. Grimme, Angew. Chem. Int. Ed., 2020, 59, 15665-15673.
     DOI: 10.1002/anie.202004239
   
   for ALPB and GBSA implicit solvation:
   * S. Ehlert, M. Stahn, S. Spicher, S. Grimme, J. Chem. Theory Comput.,
     2021, 17, 4250-4261. DOI: 10.1021/acs.jctc.1c00471
   
   for ddCOSMO and CPCM-X implicit solvation:
   * M. Stahn, S. Ehlert, S. Grimme, J. Phys. Chem. A,
     2023, XX, XXXX-XXXX. DOI: 10.1021/acs.jpca.3c04382
   
   for DFT-D4:
   * E. Caldeweyher, C. Bannwarth and S. Grimme, J. Chem. Phys., 2017,
     147, 034112. DOI: 10.1063/1.4993215
   * E. Caldeweyher, S. Ehlert, A. Hansen, H. Neugebauer, S. Spicher,
     C. Bannwarth and S. Grimme, J. Chem. Phys., 2019, 150, 154122.
     DOI: 10.1063/1.5090222
   * E. Caldeweyher, J.-M. Mewes, S. Ehlert and S. Grimme, Phys. Chem. Chem. Phys.
     2020, 22, 8499-8512. DOI: 10.1039/D0CP00502A
   
   for sTDA-xTB:
   * S. Grimme and C. Bannwarth, J. Chem. Phys., 2016, 145, 054103.
     DOI: 10.1063/1.4959605
   
   in the mass-spec context:
   * V. Asgeirsson, C. Bauer and S. Grimme, Chem. Sci., 2017, 8, 4879.
     DOI: 10.1039/c7sc00601b
   * J. Koopman and S. Grimme, ACS Omega 2019, 4, 12, 15120-15133.
     DOI: 10.1021/acsomega.9b02011
   
   for metadynamics refer to:
   * S. Grimme, J. Chem. Theory Comput., 2019, 155, 2847-2862
     DOI: 10.1021/acs.jctc.9b00143
   
   for SPH calculations refer to:
   * S. Spicher and S. Grimme, J. Chem. Theory Comput., 2021, 17, 1701-1714
     DOI: 10.1021/acs.jctc.0c01306
   
   for ONIOM refer to:
   * C. Plett, A. Katbashev, S. Ehlert, S. Grimme, M. Bursch,
     Phys. Chem. Chem. Phys., 2023, 25, 17860-17868. DOI: 10.1039/D3CP02178E
   
   for DIPRO refer to:
   * J. Kohn, N. Gildemeister, S. Grimme, D. Fazzi, A. Hansen,
     J. Chem. Phys., 2023, just accepted.
   
   for PTB refer to:
   * S. Grimme, M. Mueller, A. Hansen, J. Chem. Phys., 2023, 158, 124111.
     DOI: 10.1063/5.0137838
   
   with help from (in alphabetical order)
   P. Atkinson, C. Bannwarth, F. Bohle, G. Brandenburg, E. Caldeweyher
   M. Checinski, S. Dohm, S. Ehlert, S. Ehrlich, I. Gerasimov, C. Hölzer
   A. Katbashev, J. Kohn, J. Koopman, C. Lavigne, S. Lehtola, F. März, M. Müller,
   F. Musil, H. Neugebauer, J. Pisarek, C. Plett, P. Pracht, F. Pultar,
   J. Seibert, P. Shushkov, S. Spicher, M. Stahn, M. Steiner, T. Strunk,
   J. Stückrath, T. Rose, and J. Unsleber
   
 * started run on 2025/01/15 at 17:23:17.859     
   ID    Z sym.   atoms
    1    8 o      1
    2    1 h      2, 3, 62-81
    3    6 c      4-61

           -------------------------------------------------
          |                Calculation Setup                |
           -------------------------------------------------

          program call               : xtb interaction --opt
          coordinate file            : interaction
          omp threads                :                    16


molecular fragmentation (1/2 indicates fragments):
111222222222222222222222222222222222222222222222222222222222222222222222
222222222
# atoms in fragment 1/2:     3    78
 fragment masses (1/2) :       18.02      716.78
CMA distance (Bohr)    :  23.178
constraining FC (au)   :  0.0500

           -------------------------------------------------
          |                 G F N 2 - x T B                 |
           -------------------------------------------------

        Reference                      10.1021/acs.jctc.8b01176
      * Hamiltonian:
        H0-scaling (s, p, d)           1.850000    2.230000    2.230000
        zeta-weighting                 0.500000
      * Dispersion:
        s8                             2.700000
        a1                             0.520000
        a2                             5.000000
        s9                             5.000000
      * Repulsion:
        kExp                           1.500000    1.000000
        rExp                           1.000000
      * Coulomb:
        alpha                          2.000000
        third order                    shell-resolved
        anisotropic                    true
        a3                             3.000000
        a5                             4.000000
        cn-shift                       1.200000
        cn-exp                         4.000000
        max-rad                        5.000000


          ...................................................
          :                      SETUP                      :
          :.................................................:
          :  # basis functions                 258          :
          :  # atomic orbitals                 258          :
          :  # shells                          140          :
          :  # electrons                       260          :
          :  max. iterations                   250          :
          :  Hamiltonian                  GFN2-xTB          :
          :  restarted?                      false          :
          :  GBSA solvation                  false          :
          :  PC potential                    false          :
          :  electronic temp.          300.0000000     K    :
          :  accuracy                    1.0000000          :
          :  -> integral cutoff          0.2500000E+02      :
          :  -> integral neglect         0.1000000E-07      :
          :  -> SCF convergence          0.1000000E-05 Eh   :
          :  -> wf. convergence          0.1000000E-03 e    :
          :  Broyden damping             0.4000000          :
          :  net charge                          0          :
          :  unpaired electrons                  0          :
          ...................................................

 iter      E             dE          RMSdq      gap      omega  full diag
   1   -142.4562330 -0.142456E+03  0.477E+00    0.31       0.0  T
   2   -142.4831111 -0.268781E-01  0.284E+00    0.30       1.0  T
   3   -142.3917725  0.913386E-01  0.870E-01    0.35       1.0  T
   4   -142.2440164  0.147756E+00  0.126E+00    0.80       1.0  T
   5   -142.4410173 -0.197001E+00  0.583E-01    0.35       1.0  T
   6   -142.4614229 -0.204055E-01  0.448E-01    0.34       1.0  T
   7   -142.4910351 -0.296122E-01  0.786E-02    0.31       1.0  T
   8   -142.4914585 -0.423362E-03  0.317E-02    0.31       1.0  T
   9   -142.4914290  0.294209E-04  0.290E-02    0.31       1.0  T
  10   -142.4915370 -0.107954E-03  0.748E-03    0.31       1.5  T
  11   -142.4915385 -0.149746E-05  0.496E-03    0.31       2.2  T
  12   -142.4915421 -0.361208E-05  0.160E-03    0.31       7.0  T
  13   -142.4915422 -0.116358E-06  0.137E-03    0.31       8.1  T
  14   -142.4915425 -0.284674E-06  0.191E-04    0.31      58.2  T
  15   -142.4915425 -0.505281E-09  0.133E-04    0.31      83.6  T

   *** convergence criteria satisfied after 15 iterations ***

         #    Occupation            Energy/Eh            Energy/eV
      -------------------------------------------------------------
         1        2.0000           -0.6793902             -18.4871
       ...           ...                  ...                  ...
       124        2.0000           -0.3921225             -10.6702
       125        2.0000           -0.3885496             -10.5730
       126        2.0000           -0.3852096             -10.4821
       127        2.0000           -0.3847270             -10.4690
       128        2.0000           -0.3678301             -10.0092
       129        2.0000           -0.3446868              -9.3794
       130        1.9949           -0.3299961              -8.9797 (HOMO)
       131        0.0051           -0.3186686              -8.6714 (LUMO)
       132                         -0.3025359              -8.2324
       133                         -0.2754825              -7.4963
       134                         -0.2532585              -6.8915
       135                         -0.2520614              -6.8589
       ...                                ...                  ...
       258                          0.7775707              21.1588
      -------------------------------------------------------------
                  HL-Gap            0.0113275 Eh            0.3082 eV
             Fermi-level           -0.3243324 Eh           -8.8255 eV

 SCC (total)                   0 d,  0 h,  0 min,  0.612 sec
 SCC setup                      ...        0 min,  0.000 sec (  0.075%)
 Dispersion                     ...        0 min,  0.003 sec (  0.516%)
 classical contributions        ...        0 min,  0.000 sec (  0.043%)
 integral evaluation            ...        0 min,  0.010 sec (  1.627%)
 iterations                     ...        0 min,  0.556 sec ( 90.937%)
 molecular gradient             ...        0 min,  0.035 sec (  5.642%)
 printout                       ...        0 min,  0.007 sec (  1.155%)

         :::::::::::::::::::::::::::::::::::::::::::::::::::::
         ::                     SUMMARY                     ::
         :::::::::::::::::::::::::::::::::::::::::::::::::::::
         :: total energy            -139.788650350758 Eh    ::
         :: gradient norm              0.000754763330 Eh/a0 ::
         :: HOMO-LUMO gap              0.308236063664 eV    ::
         ::.................................................::
         :: SCC energy              -142.494016925571 Eh    ::
         :: -> isotropic ES            0.033467349887 Eh    ::
         :: -> anisotropic ES          0.008108744602 Eh    ::
         :: -> anisotropic XC          0.057409228193 Eh    ::
         :: -> dispersion             -0.148726251868 Eh    ::
         :: repulsion energy           2.705366574814 Eh    ::
         :: add. restraining           0.000000000000 Eh    ::
         :: total charge               0.000000000774 e     ::
         :::::::::::::::::::::::::::::::::::::::::::::::::::::

      ----------------------------------------------------------- 
     |                   =====================                   |
     |                        A N C O P T                        |
     |                   =====================                   |
     |               Approximate Normal Coordinate               |
     |                Rational Function Optimizer                |
      ----------------------------------------------------------- 
      ----------------------------------------------------------- 
     |                   =====================                   |
     |                        A N C O P T                        |
     |                   =====================                   |
     |               Approximate Normal Coordinate               |
     |                Rational Function Optimizer                |
      ----------------------------------------------------------- 

          ...................................................
          :                      SETUP                      :
          :.................................................:
          :   optimization level            normal          :
          :   max. optcycles                   243          :
          :   ANC micro-cycles                  20          :
          :   degrees of freedom               237          :
          :.................................................:
          :   RF solver                   davidson          :
          :   write xtbopt.log                true          :
          :   linear?                        false          :
          :   energy convergence         0.5000000E-05 Eh   :
          :   grad. convergence          0.1000000E-02 Eh/α :
          :   maxmium RF displ.          1.0000000          :
          :   Hlow (freq-cutoff)         0.1000000E-01      :
          :   Hmax (freq-cutoff)         5.0000000          :
          :   S6 in model hess.         20.0000000          :
          ...................................................

generating ANC from exact Hessian ...
Using Lindh-Hessian (1995)
 Shifting diagonal of input Hessian by    9.9918837030382405E-003
 Lowest  eigenvalues of input Hessian
    0.000000    0.000000    0.000000    0.000000    0.000000    0.000000
    0.010000    0.010012    0.010028    0.010064    0.010250    0.010419
    0.010494    0.010704    0.011195    0.011439    0.011968    0.013703
 Highest eigenvalues
    2.115462    2.128070    2.173755    2.187408    2.187423    2.238026


........................................................................
.............................. CYCLE    1 ..............................
........................................................................

 iter      E             dE          RMSdq      gap      omega  full diag
   1   -142.4915425 -0.142492E+03  0.672E-05    0.31       0.0  T
   2   -142.4915425  0.480436E-07  0.541E-04    0.31      20.5  T
   3   -142.4915425 -0.480383E-07  0.609E-05    0.31     182.3  T
     SCC iter.                  ...        0 min,  0.118 sec
     gradient                   ...        0 min,  0.035 sec
 * total energy  :  -139.7886504 Eh     change       -0.1726647E-08 Eh
   gradient norm :     0.0007546 Eh/α   predicted     0.0000000E+00 (-100.00%)
   displ. norm   :     0.0120044 α      lambda       -0.1674269E-05
   maximum displ.:     0.0078369 α      in ANC's #1, #6, #29, ...

   *** GEOMETRY OPTIMIZATION CONVERGED AFTER 1 ITERATIONS ***

------------------------------------------------------------------------
 total energy gain   :        -0.0000000 Eh       -0.0000 kcal/mol
 total RMSD          :         0.0000000 a0        0.0000 Å
 total power (kW/mol):        -0.0000045 (step)   -0.0000 (real)
------------------------------------------------------------------------

 ANCopt (total)                0 d,  0 h,  0 min,  0.211 sec
 optimizer setup                ...        0 min,  0.000 sec (  0.070%)
 model hessian                  ...        0 min,  0.018 sec (  8.524%)
 ANC generation                 ...        0 min,  0.016 sec (  7.691%)
 coordinate transformation      ...        0 min,  0.000 sec (  0.031%)
 single point calculation       ...        0 min,  0.174 sec ( 82.490%)
 optimization log               ...        0 min,  0.000 sec (  0.119%)
 hessian update                 ...        0 min,  0.000 sec (  0.001%)
 rational function              ...        0 min,  0.000 sec (  0.080%)

================
 final structure:
================
$coord
       -2.58353907178499        1.28375709712252       -0.00504592780170      o
       -4.12801223374225        1.50575078393002       -0.92715254925335      h
       -2.58021315380500        2.50114701273527        1.33767665264696      h
        2.30726111231092        1.37046907009398       18.89724235267465      c
        0.02743579977311        5.41990460183287       18.89726124993590      c
       -2.25353619857736        9.45870286521416       18.89726124993590      c
       -4.52882314485339       13.49844599165796       18.89726124993590      c
       -6.80397781030067       17.55034005708547       18.89724235267465      c
        4.50374647917472        0.08072305293613       18.89726124993590      c
        6.89727358909160        1.35242974450479       18.89726124993590      c
        2.25143860257861        4.07988090933866       18.89726124993590      c
        4.61775365629559        5.39603736087420       18.89724235267465      c
       -0.01565116530147        8.09747644559753       18.89726124993590      c
        2.34189979218206        9.42283586336178       18.89724235267465      c
       -2.28396078918975       12.12087344106013       18.89726124993590      c
        0.06972352408038       13.44850053017438       18.89724235267465      c
       -4.54344962506084       16.14818216960147       18.89726124993590      c
       -2.20285374390503       17.47454314221197       18.89726124993590      c
       -6.75919130113832       20.15846446575662       18.89720455815215      c
       -4.49365534166726       21.46161960155220       18.89726124993590      c
        9.15158457538021        0.06302765750169       18.89726124993590      c
       11.51018954650721        1.33069222488899       18.89726124993590      c
        6.89521378761536        4.05867818221623       18.89724235267465      c
        9.23473252487992        5.37307718845552       18.89724235267465      c
        4.62688103347930        8.07708630070885       18.89724235267465      c
        6.96377305143013        9.39785368398937       18.89724235267465      c
        2.35677193678576       12.09789437138021       18.89724235267465      c
        4.69256791358408       13.41949323415573       18.89724235267465      c
        0.09058855714427       16.12301101761656       18.89726124993590      c
        2.42242102236803       17.44067925005209       18.89726124993590      c
       -2.17851407141511       20.16186597278161       18.89726124993590      c
        0.15474381422474       21.43440754535229       18.89726124993590      c
       13.79142913007697        0.03716051938494       18.89726124993590      c
       16.12469287386780        1.30971815462768       18.89726124993590      c
       11.52375778008466        4.03086141365633       18.89724235267465      c
       13.85558533202050        5.34852964609186       18.89726124993590      c
        9.25361088886861        8.05204742955268       18.89724235267465      c
       11.58940686566694        9.37364629232820       18.89724235267465      c
        6.98240575102256       12.07370587698029       18.89724235267465      c
        9.31929776897339       13.39445436299956       18.89724235267465      c
        4.71144627757277       16.09846347525289       18.89724235267465      c
        7.05096501483733       17.41286248149218       18.89726124993590      c
        2.43598925594549       20.14089001279418       18.89726124993590      c
        4.79459422707249       21.40851829743988       18.89726124993590      c
       18.43983414411995        0.01000148890010       18.89726124993590      c
       20.70535120632976        1.31307997740405       18.89724235267465      c
       16.14903254635772        3.99699752149644       18.89726124993590      c
       18.48962842751353        5.32337739136819       18.89726124993590      c
       13.87644790844043        8.02304013353404       18.89726124993590      c
       16.23013959164244        9.35068611990953       18.89726124993590      c
       11.60427901027064       12.04870480034663       18.89724235267465      c
       13.96182573476764       13.37408311537213       18.89726124993590      c
        9.32842514615711       16.07550330283422       18.89724235267465      c
       11.69474019987408       17.39165975436975       18.89726124993590      c
        7.04890521336109       20.11915816235675       18.89726124993590      c
        9.44243232327797       21.39075487186494       18.89726124993590      c
       20.75013771549211        3.92120060662295       18.89726124993590      c
       18.47500194730608        7.97309467205045       18.89726124993590      c
       16.19971500103005       12.01283779849425       18.89726124993590      c
       13.91873997911778       16.05165495913680       18.89726124993590      c
       11.63891769014177       20.10101679155682       18.89724235267465      c
       -4.47976585464855       23.50290176177027       18.89724235267465      h
        0.16137240655338       23.47739045908286       18.89726124993590      h
        4.79740991899873       23.45206812900794       18.89726124993590      h
        9.42927982944802       23.43354881298301       18.89726124993590      h
        4.51689897300468       -1.96204594379709       18.89726124993590      h
        9.14876888345396       -1.98050856803828       18.89726124993590      h
       13.78481508863949       -2.00592538441945       18.89726124993590      h
       18.42594465710125       -2.03132330353936       18.89726124993590      h
        0.51703095752437        0.38603703226594       18.89726124993590      h
       -1.75622453316729        4.42201582426875       18.89726124993590      h
       -4.03600146871631        8.45954797114630       18.89726124993590      h
       -6.31211989448734       12.50099185110259       18.89726124993590      h
       -8.58372187481963       16.55035368352261       18.89726124993590      h
       22.52988178001107        4.92120587744706       18.89726124993590      h
       20.25824200515628        8.97056770986707       18.89726124993590      h
       17.98218027116900       13.01199269256211       18.89726124993590      h
       15.70239577671549       17.04952483943967       18.89726124993590      h
       13.42914973465444       21.08556410267847       18.89726124993590      h
       -8.51846963172360       21.19630205360310       18.89726124993590      h
       22.46468622869880        0.27526128681882       18.89726124993590      h
$end

 Bond Distances (Angstroems)
 ---------------------------
O1-H2=0.9591         O1-H3=0.9591         H2-O1=0.9591         H3-O1=0.9591         C4-C9=1.3479         C4-C11=1.4341        
C4-H70=1.0811        C5-C11=1.3740        C5-C13=1.4171        C5-H71=1.0815        C6-C13=1.3861        C6-C15=1.4089        
C6-H72=1.0813        C7-C15=1.3938        C7-C17=1.4022        C7-H73=1.0813        C8-C17=1.4077        C8-C19=1.3804        
C8-H74=1.0803        C9-C4=1.3479         C9-C10=1.4343        C9-H66=1.0810        C10-C9=1.4343        C10-C21=1.3743       
C10-C23=1.4321       C11-C4=1.4341        C11-C5=1.3740        C11-C12=1.4329       C12-C11=1.4329       C12-C23=1.3976       
C12-C25=1.4188       C13-C5=1.4171        C13-C6=1.3861        C13-C14=1.4312       C14-C13=1.4312       C14-C25=1.4033       
C14-C27=1.4156       C15-C6=1.4089        C15-C7=1.3938        C15-C16=1.4300       C16-C15=1.4300       C16-C27=1.4055       
C16-C29=1.4153       C17-C7=1.4022        C17-C8=1.4077        C17-C18=1.4236       C18-C17=1.4236       C18-C29=1.4087       
C18-C31=1.4221       C19-C8=1.3804        C19-C20=1.3831       C19-H80=1.0809       C20-C19=1.3831       C20-C31=1.4050       
C20-H62=1.0802       C21-C10=1.3743       C21-C22=1.4170       C21-H67=1.0814       C22-C21=1.4170       C22-C33=1.3877       
C22-C35=1.4289       C23-C10=1.4321       C23-C12=1.3976       C23-C24=1.4200       C24-C23=1.4200       C24-C35=1.4042       
C24-C37=1.4177       C25-C12=1.4188       C25-C14=1.4033       C25-C26=1.4205       C26-C25=1.4205       C26-C37=1.4055       
C26-C39=1.4160       C27-C14=1.4156       C27-C16=1.4055       C27-C28=1.4202       C28-C27=1.4202       C28-C39=1.4055       
C28-C41=1.4177       C29-C16=1.4153       C29-C18=1.4087       C29-C30=1.4173       C30-C29=1.4173       C30-C41=1.4042       
C30-C43=1.4289       C31-C18=1.4221       C31-C20=1.4050       C31-C32=1.4064       C32-C31=1.4064       C32-C43=1.3877       
C32-H63=1.0811       C33-C22=1.3877       C33-C34=1.4064       C33-H68=1.0812       C34-C33=1.4064       C34-C45=1.4050       
C34-C47=1.4221       C35-C22=1.4289       C35-C24=1.4042       C35-C36=1.4173       C36-C35=1.4173       C36-C47=1.4087       
C36-C49=1.4153       C37-C24=1.4177       C37-C26=1.4055       C37-C38=1.4202       C38-C37=1.4202       C38-C49=1.4055       
C38-C51=1.4156       C39-C26=1.4160       C39-C28=1.4055       C39-C40=1.4205       C40-C39=1.4205       C40-C51=1.4033       
C40-C53=1.4188       C41-C28=1.4177       C41-C30=1.4042       C41-C42=1.4200       C42-C41=1.4200       C42-C53=1.3976       
C42-C55=1.4321       C43-C30=1.4289       C43-C32=1.3877       C43-C44=1.4170       C44-C43=1.4170       C44-C55=1.3743       
C44-H64=1.0814       C45-C34=1.4050       C45-C46=1.3830       C45-H69=1.0802       C46-C45=1.3830       C46-C57=1.3804       
C46-H81=1.0809       C47-C34=1.4221       C47-C36=1.4087       C47-C48=1.4236       C48-C47=1.4236       C48-C57=1.4077       
C48-C58=1.4022       C49-C36=1.4153       C49-C38=1.4055       C49-C50=1.4300       C50-C49=1.4300       C50-C58=1.3938       
C50-C59=1.4088       C51-C38=1.4156       C51-C40=1.4033       C51-C52=1.4312       C52-C51=1.4312       C52-C59=1.3861       
C52-C60=1.4171       C53-C40=1.4188       C53-C42=1.3976       C53-C54=1.4329       C54-C53=1.4329       C54-C60=1.3740       
C54-C61=1.4340       C55-C42=1.4321       C55-C44=1.3743       C55-C56=1.4342       C56-C55=1.4342       C56-C61=1.3479       
C56-H65=1.0810       C57-C46=1.3804       C57-C48=1.4077       C57-H75=1.0803       C58-C48=1.4022       C58-C50=1.3938       
C58-H76=1.0812       C59-C50=1.4088       C59-C52=1.3861       C59-H77=1.0813       C60-C52=1.4171       C60-C54=1.3740       
C60-H78=1.0815       C61-C54=1.4340       C61-C56=1.3479       C61-H79=1.0812       H62-C20=1.0802       H63-C32=1.0811       
H64-C44=1.0814       H65-C56=1.0810       H66-C9=1.0810        H67-C21=1.0814       H68-C33=1.0812       H69-C45=1.0802       
H70-C4=1.0811        H71-C5=1.0815        H72-C6=1.0813        H73-C7=1.0813        H74-C8=1.0803        H75-C57=1.0803       
H76-C58=1.0812       H77-C59=1.0813       H78-C60=1.0815       H79-C61=1.0812       H80-C19=1.0809       H81-C46=1.0809       
 C  H  Rav=1.0810 sigma=0.0004  Rmin=1.0802  Rmax=1.0815    20
 C  C  Rav=1.4088 sigma=0.0191  Rmin=1.3479  Rmax=1.4343    77
 O  H  Rav=0.9591 sigma=0.0000  Rmin=0.9591  Rmax=0.9591     2

 selected bond angles (degree)
 --------------------
H3-O1-H2=107.23                C11-C4-C9=121.60               H70-C4-C9=120.77               H70-C4-C11=117.63              
C13-C5-C11=121.99              H71-C5-C11=119.70              H71-C5-C13=118.30              C15-C6-C13=121.97              
H72-C6-C13=119.42              H72-C6-C15=118.62              C17-C7-C15=121.85              H73-C7-C15=119.24              
H73-C7-C17=118.90              C19-C8-C17=120.83              H74-C8-C17=118.86              H74-C8-C19=120.31              
C10-C9-C4=121.60               H66-C9-C4=120.79               H66-C9-C10=117.61              C21-C10-C9=122.25              
C23-C10-C9=117.94              C23-C10-C21=119.81             

 selected dihedral angles (degree)
 ---------------------------------
C10-C9-C4-C11=  0.00          C10-C9-C4-H70=180.00          H66-C9-C4-C11=180.00          H66-C9-C4-H70=  0.00          
C21-C10-C9-C4=180.00          C21-C10-C9-H66=  0.00         C23-C10-C9-C4=  0.00          C23-C10-C9-H66=180.00         

 CMA Distance (Angstroems)
 ---------------------------
R(CMA): 12.2652
           -------------------------------------------------
          |                Final Singlepoint                |
           -------------------------------------------------

          ...................................................
          :                      SETUP                      :
          :.................................................:
          :  # basis functions                 258          :
          :  # atomic orbitals                 258          :
          :  # shells                          140          :
          :  # electrons                       260          :
          :  max. iterations                   250          :
          :  Hamiltonian                  GFN2-xTB          :
          :  restarted?                      false          :
          :  GBSA solvation                  false          :
          :  PC potential                    false          :
          :  electronic temp.          300.0000000     K    :
          :  accuracy                    1.0000000          :
          :  -> integral cutoff          0.2500000E+02      :
          :  -> integral neglect         0.1000000E-07      :
          :  -> SCF convergence          0.1000000E-05 Eh   :
          :  -> wf. convergence          0.1000000E-03 e    :
          :  Broyden damping             0.4000000          :
          :  net charge                          0          :
          :  unpaired electrons                  0          :
          ...................................................

 iter      E             dE          RMSdq      gap      omega  full diag
   1   -142.4915425 -0.142492E+03  0.198E-05    0.31       0.0  T
   2   -142.4915425  0.349797E-08  0.146E-04    0.31      76.1  T
   3   -142.4915425 -0.348030E-08  0.199E-05    0.31     558.6  T

   *** convergence criteria satisfied after 3 iterations ***

         #    Occupation            Energy/Eh            Energy/eV
      -------------------------------------------------------------
         1        2.0000           -0.6793893             -18.4871
       ...           ...                  ...                  ...
       124        2.0000           -0.3921226             -10.6702
       125        2.0000           -0.3885499             -10.5730
       126        2.0000           -0.3852097             -10.4821
       127        2.0000           -0.3847270             -10.4690
       128        2.0000           -0.3678305             -10.0092
       129        2.0000           -0.3446869              -9.3794
       130        1.9949           -0.3299958              -8.9796 (HOMO)
       131        0.0051           -0.3186683              -8.6714 (LUMO)
       132                         -0.3025360              -8.2324
       133                         -0.2754829              -7.4963
       134                         -0.2532585              -6.8915
       135                         -0.2520615              -6.8589
       ...                                ...                  ...
       258                          0.7775704              21.1588
      -------------------------------------------------------------
                  HL-Gap            0.0113275 Eh            0.3082 eV
             Fermi-level           -0.3243320 Eh           -8.8255 eV

 SCC (total)                   0 d,  0 h,  0 min,  0.171 sec
 SCC setup                      ...        0 min,  0.001 sec (  0.312%)
 Dispersion                     ...        0 min,  0.003 sec (  1.681%)
 classical contributions        ...        0 min,  0.000 sec (  0.084%)
 integral evaluation            ...        0 min,  0.010 sec (  5.745%)
 iterations                     ...        0 min,  0.115 sec ( 67.279%)
 molecular gradient             ...        0 min,  0.036 sec ( 21.075%)
 printout                       ...        0 min,  0.007 sec (  3.807%)

         :::::::::::::::::::::::::::::::::::::::::::::::::::::
         ::                     SUMMARY                     ::
         :::::::::::::::::::::::::::::::::::::::::::::::::::::
         :: total energy            -139.788650353003 Eh    ::
         :: gradient norm              0.000754615676 Eh/a0 ::
         :: HOMO-LUMO gap              0.308235837997 eV    ::
         ::.................................................::
         :: SCC energy              -142.494016927816 Eh    ::
         :: -> isotropic ES            0.033467119045 Eh    ::
         :: -> anisotropic ES          0.008108878815 Eh    ::
         :: -> anisotropic XC          0.057409216596 Eh    ::
         :: -> dispersion             -0.148726267247 Eh    ::
         :: repulsion energy           2.705366574814 Eh    ::
         :: add. restraining           0.000000000000 Eh    ::
         :: total charge               0.000000000774 e     ::
         :::::::::::::::::::::::::::::::::::::::::::::::::::::


Property printout bound to 'properties.out'

optimized geometry written to: xtbopt.coord


           -------------------------------------------------
          | TOTAL ENERGY             -139.788650353003 Eh   |
          | GRADIENT NORM               0.000754615676 Eh/α |
          | HOMO-LUMO GAP               0.308235837997 eV   |
           -------------------------------------------------

------------------------------------------------------------------------
 * finished run on 2025/01/15 at 17:23:18.881     
------------------------------------------------------------------------
 total:
 * wall-time:     0 d,  0 h,  0 min,  1.022 sec
 *  cpu-time:     0 d,  0 h,  0 min,  3.442 sec
 * ratio c/w:     3.369 speedup
 SCF:
 * wall-time:     0 d,  0 h,  0 min,  0.613 sec
 *  cpu-time:     0 d,  0 h,  0 min,  1.701 sec
 * ratio c/w:     2.775 speedup
 ANC optimizer:
 * wall-time:     0 d,  0 h,  0 min,  0.385 sec
 *  cpu-time:     0 d,  0 h,  0 min,  1.612 sec
 * ratio c/w:     4.186 speedup

