81
 energy: -137.990664308268 gnorm: 0.000161790905 xtb: 6.7.1 (edcfbbe)
c            1.27401670210984        0.73911893992746       10.03491860915141
c            0.05049337569643        2.86059593931937       10.26331436797469
c           -1.19246966016111        5.01293512914045       10.42219522658781
c           -2.38777233398909        7.15355145132940       10.26448622019005
c           -3.59204429117477        9.29140730541872       10.08860359884973
c            2.42063532064249        0.06408282489143        9.81778645524708
c            3.67462562358557        0.74277189950403        9.65537267146548
c            1.22880156926535        2.17274005758180       10.01496374768326
c            2.42161114577533        2.88079097714803        9.65177597791955
c           -0.01827951812253        4.27246256228298       10.27587001118411
c            1.18443653048732        4.97510579633759        9.97237936401172
c           -1.20626862656222        6.41375869277297       10.25143976484270
c            0.03533039506188        7.11933294235014       10.09787435405398
c           -2.39670683679012        8.55113889337571       10.10968347711972
c           -1.16322104039259        9.24851775194922        9.97763637770093
c           -3.56987032485218       10.66528257713327        9.93742794007175
c           -2.37493966297994       11.34755744167746        9.80798815292697
c            4.86787884224194        0.04341195253699        9.65328866045932
c            6.12302217703115        0.68679552945473        9.68561298904892
c            3.67640436154902        2.17178891195472        9.57529676828605
c            4.93396421992515        2.80748380384866        9.60443258030873
c            2.27111462569072        4.26596097022410        9.49087879196940
h           11.90486939120019        0.11628052737301       10.07285693990617
c            1.24235468397587        6.40809967943335       10.08530369366319
c            2.46128672295884        7.12280963676019       10.19865354613041
c            0.05101017470607        8.53211592527904        9.99709492596558
c            1.28123807656163        9.22408338915993        9.89403765703954
c           -1.14681187998685       10.66215890392463        9.82782025037546
c            0.08625510401954       11.32964321103260        9.71573137900653
c            7.33655935431073        0.00115222962348        9.73438102793560
c            8.55732688831744        0.67745595170328        9.84720321139032
c            6.13732265539727        2.11475287883198        9.71785690187856
c            7.37127805610372        2.81956703415730        9.88713430542098
c            4.97720914031429        4.27804608210536        9.67826160139935
c            6.22686570754146        4.96221645523813       10.05921812830447
c            3.66901872817545        6.53110712098089       10.76193687637155
c            4.95573365670431        7.09687129305434       10.32413014839105
c            2.49290148172436        8.51752732013918       10.01469918195559
c            3.74240564017745        9.20617338910396       10.01061573930991
c            1.29724656854871       10.64610921473978        9.75945934515698
c            2.54997768755753       11.30216400220238        9.70852047237286
c            9.78401658657410       -0.01253808313929        9.89655218680918
c           10.97601631124436        0.66740832507268       10.03946095195896
c            8.56937602718921        2.10443441685506        9.94464802786112
c            9.81241849873370        2.79728902897136       10.10985226472862
c            7.40343622085264        4.24500991606945       10.05407269315745
c            8.64782671248634        4.94277754440265       10.20356089496814
c            6.16888130615178        6.36442024001700       10.24935997951950
c            7.41947303907204        7.07094949947734       10.23391399820481
c            4.95587027573134        8.49142074345496       10.11629248519997
c            6.20959136280504        9.18542086959853       10.04440136805415
c            3.74481052431888       10.61707174366413        9.83209606753215
c            5.01365740312753       11.28682247095241        9.78810305922491
c           10.99844544666689        2.04747792471043       10.14717883635240
c            9.82462221203682        4.19664348785527       10.22199276656820
c            8.61095814893971        6.34964348423852       10.24740529122096
c            7.38907868064925        8.48554749863393       10.16501691607787
c            6.17619839274515       10.61046988374536        9.88810977095455
h           -2.37261802516566       12.42175162702852        9.69289082556326
h            0.08809409021268       12.40597945556834        9.61473262743547
h            2.56376600247017       12.37623519421157        9.58562779616892
h            5.01017280388281       12.36113144923778        9.66806356011102
h            2.43282820522103       -1.01681348408076        9.82527405694716
h            4.84446938083052       -1.03732906943675        9.68488483414377
h            7.33800676015891       -1.07940224106224        9.69683758544875
h            9.77810366486271       -1.09043417883821        9.82347668386159
h            0.35185552914916        0.20918077618070       10.22833791875410
h           -0.85455386395277        2.29835720927100       10.44995520619040
h           -2.12634235780624        4.50344419743070       10.61433368643137
h           -3.33070182396560        6.64039980549505       10.39431519224300
h           -4.53303400170828        8.77060665461658       10.19010809513451
h           11.93951461292102        2.56500397007815       10.26535600316270
h           10.77456164284994        4.70249206161202       10.32621021620787
h            9.54799756355743        6.88929249382095       10.26039476558270
h            8.32816291458447        9.02216335603584       10.17283259380139
h            7.12211430577526       11.13264524125676        9.85052527902123
h           -4.50061836891910       11.21409764474101        9.92183897919191
h            2.96126967029030        4.86025830962666        8.93115709624987
h            4.69342100319710        4.71665515179840        8.71648411358103
o            3.59765782141086        5.67766448860988       11.64922598901570
h            4.22866310791879        4.50873804756332       10.43306805810364
