      -----------------------------------------------------------      
     |                   =====================                   |     
     |                           x T B                           |     
     |                   =====================                   |     
     |                         S. Grimme                         |     
     |          Mulliken Center for Theoretical Chemistry        |     
     |                    University of Bonn                     |     
      -----------------------------------------------------------      

   * xtb version 6.7.1 (edcfbbe) compiled by 'conda@3ef47c1a292c' on 2024-11-25

   xtb is free software: you can redistribute it and/or modify it under
   the terms of the GNU Lesser General Public License as published by
   the Free Software Foundation, either version 3 of the License, or
   (at your option) any later version.
   
   xtb is distributed in the hope that it will be useful,
   but WITHOUT ANY WARRANTY; without even the implied warranty of
   MERCHANTABILITY or FITNESS FOR A PARTICULAR PURPOSE.  See the
   GNU Lesser General Public License for more details.
   
   Cite this work as:
   * C. Bannwarth, E. Caldeweyher, S. Ehlert, A. Hansen, P. Pracht,
     J. Seibert, S. Spicher, S. Grimme, WIREs Comput. Mol. Sci., 2020, 11,
     e01493. DOI: 10.1002/wcms.1493
   
   for GFN2-xTB:
   * C. Bannwarth, S. Ehlert and S. Grimme., J. Chem. Theory Comput., 2019,
     15, 1652-1671. DOI: 10.1021/acs.jctc.8b01176
   for GFN1-xTB:
   * S. Grimme, C. Bannwarth, P. Shushkov, J. Chem. Theory Comput., 2017,
     13, 1989-2009. DOI: 10.1021/acs.jctc.7b00118
   for GFN0-xTB:
   * P. Pracht, E. Caldeweyher, S. Ehlert, S. Grimme, ChemRxiv, 2019, preprint.
     DOI: 10.26434/chemrxiv.8326202.v1
   for GFN-FF:
   * S. Spicher and S. Grimme, Angew. Chem. Int. Ed., 2020, 59, 15665-15673.
     DOI: 10.1002/anie.202004239
   
   for ALPB and GBSA implicit solvation:
   * S. Ehlert, M. Stahn, S. Spicher, S. Grimme, J. Chem. Theory Comput.,
     2021, 17, 4250-4261. DOI: 10.1021/acs.jctc.1c00471
   
   for ddCOSMO and CPCM-X implicit solvation:
   * M. Stahn, S. Ehlert, S. Grimme, J. Phys. Chem. A,
     2023, XX, XXXX-XXXX. DOI: 10.1021/acs.jpca.3c04382
   
   for DFT-D4:
   * E. Caldeweyher, C. Bannwarth and S. Grimme, J. Chem. Phys., 2017,
     147, 034112. DOI: 10.1063/1.4993215
   * E. Caldeweyher, S. Ehlert, A. Hansen, H. Neugebauer, S. Spicher,
     C. Bannwarth and S. Grimme, J. Chem. Phys., 2019, 150, 154122.
     DOI: 10.1063/1.5090222
   * E. Caldeweyher, J.-M. Mewes, S. Ehlert and S. Grimme, Phys. Chem. Chem. Phys.
     2020, 22, 8499-8512. DOI: 10.1039/D0CP00502A
   
   for sTDA-xTB:
   * S. Grimme and C. Bannwarth, J. Chem. Phys., 2016, 145, 054103.
     DOI: 10.1063/1.4959605
   
   in the mass-spec context:
   * V. Asgeirsson, C. Bauer and S. Grimme, Chem. Sci., 2017, 8, 4879.
     DOI: 10.1039/c7sc00601b
   * J. Koopman and S. Grimme, ACS Omega 2019, 4, 12, 15120-15133.
     DOI: 10.1021/acsomega.9b02011
   
   for metadynamics refer to:
   * S. Grimme, J. Chem. Theory Comput., 2019, 155, 2847-2862
     DOI: 10.1021/acs.jctc.9b00143
   
   for SPH calculations refer to:
   * S. Spicher and S. Grimme, J. Chem. Theory Comput., 2021, 17, 1701-1714
     DOI: 10.1021/acs.jctc.0c01306
   
   for ONIOM refer to:
   * C. Plett, A. Katbashev, S. Ehlert, S. Grimme, M. Bursch,
     Phys. Chem. Chem. Phys., 2023, 25, 17860-17868. DOI: 10.1039/D3CP02178E
   
   for DIPRO refer to:
   * J. Kohn, N. Gildemeister, S. Grimme, D. Fazzi, A. Hansen,
     J. Chem. Phys., 2023, just accepted.
   
   for PTB refer to:
   * S. Grimme, M. Mueller, A. Hansen, J. Chem. Phys., 2023, 158, 124111.
     DOI: 10.1063/5.0137838
   
   with help from (in alphabetical order)
   P. Atkinson, C. Bannwarth, F. Bohle, G. Brandenburg, E. Caldeweyher
   M. Checinski, S. Dohm, S. Ehlert, S. Ehrlich, I. Gerasimov, C. Hölzer
   A. Katbashev, J. Kohn, J. Koopman, C. Lavigne, S. Lehtola, F. März, M. Müller,
   F. Musil, H. Neugebauer, J. Pisarek, C. Plett, P. Pracht, F. Pultar,
   J. Seibert, P. Shushkov, S. Spicher, M. Stahn, M. Steiner, T. Strunk,
   J. Stückrath, T. Rose, and J. Unsleber
   
 * started run on 2024/11/28 at 16:27:25.989     
   ID    Z sym.   atoms
    1    7 n      1
    2    1 h      2-4, 27, 63-83, 85
    3    6 c      5-26, 28-62
    4    8 o      84

           -------------------------------------------------
          |                Calculation Setup                |
           -------------------------------------------------

          program call               : /home/olli/anaconda3/bin/xtb interaction
          coordinate file            : interaction
          omp threads                :                    16


molecular fragmentation (1/2 indicates fragments):
111122222222222222222222222222222222222222222222222222222222222222222222
2222222222222
# atoms in fragment 1/2:     4    81
 fragment masses (1/2) :       17.03      723.79
CMA distance (Bohr)    :  23.090
constraining FC (au)   :  0.0500

           -------------------------------------------------
          |                 G F N 2 - x T B                 |
           -------------------------------------------------

        Reference                      10.1021/acs.jctc.8b01176
      * Hamiltonian:
        H0-scaling (s, p, d)           1.850000    2.230000    2.230000
        zeta-weighting                 0.500000
      * Dispersion:
        s8                             2.700000
        a1                             0.520000
        a2                             5.000000
        s9                             5.000000
      * Repulsion:
        kExp                           1.500000    1.000000
        rExp                           1.000000
      * Coulomb:
        alpha                          2.000000
        third order                    shell-resolved
        anisotropic                    true
        a3                             3.000000
        a5                             4.000000
        cn-shift                       1.200000
        cn-exp                         4.000000
        max-rad                        5.000000


          ...................................................
          :                      SETUP                      :
          :.................................................:
          :  # basis functions                 262          :
          :  # atomic orbitals                 262          :
          :  # shells                          144          :
          :  # electrons                       265          :
          :  max. iterations                   250          :
          :  Hamiltonian                  GFN2-xTB          :
          :  restarted?                      false          :
          :  GBSA solvation                  false          :
          :  PC potential                    false          :
          :  electronic temp.          300.0000000     K    :
          :  accuracy                    1.0000000          :
          :  -> integral cutoff          0.2500000E+02      :
          :  -> integral neglect         0.1000000E-07      :
          :  -> SCF convergence          0.1000000E-05 Eh   :
          :  -> wf. convergence          0.1000000E-03 e    :
          :  Broyden damping             0.4000000          :
          :  net charge                          0          :
          :  unpaired electrons                  0          :
          ...................................................

 iter      E             dE          RMSdq      gap      omega  full diag
   1   -144.9912654 -0.144991E+03  0.486E+00    0.29       0.0  T
   2   -144.8133300  0.177935E+00  0.299E+00    0.31       1.0  T
   3   -142.9810112  0.183232E+01  0.337E+00    0.33       1.0  T
   4   -144.7318219 -0.175081E+01  0.139E+00    0.73       1.0  T
   5   -144.7785776 -0.467557E-01  0.146E+00    0.86       1.0  T
   6   -145.0021935 -0.223616E+00  0.819E-01    0.36       1.0  T
   7   -145.0497086 -0.475151E-01  0.528E-01    0.30       1.0  T
   8   -145.0675258 -0.178172E-01  0.408E-01    0.31       1.0  T
   9   -145.0778036 -0.102778E-01  0.245E-01    0.21       1.0  T
  10   -145.0819034 -0.409976E-02  0.233E-01    0.27       1.0  T
  11   -145.0889794 -0.707598E-02  0.427E-02    0.25       1.0  T
  12   -145.0886501  0.329208E-03  0.559E-02    0.25       1.0  T
  13   -145.0891077 -0.457532E-03  0.133E-02    0.25       1.0  T
  14   -145.0891172 -0.951323E-05  0.881E-03    0.25       1.2  T
  15   -145.0891276 -0.103613E-04  0.244E-03    0.25       4.4  T
  16   -145.0891280 -0.406513E-06  0.165E-03    0.25       6.6  T
  17   -145.0891283 -0.371632E-06  0.516E-04    0.25      21.0  T
  18   -145.0891283  0.125061E-08  0.510E-04    0.25      21.2  T

   *** convergence criteria satisfied after 18 iterations ***

         #    Occupation            Energy/Eh            Energy/eV
      -------------------------------------------------------------
         1        2.0000           -0.6818083             -18.5529
       ...           ...                  ...                  ...
       127        2.0000           -0.3857440             -10.4966
       128        2.0000           -0.3764403             -10.2435
       129        2.0000           -0.3702334             -10.0746
       130        2.0000           -0.3643330              -9.9140
       131        2.0000           -0.3520885              -9.5808
       132        1.8269           -0.3340616              -9.0903
       133        1.1651           -0.3310854              -9.0093 (HOMO)
       134        0.0080           -0.3218733              -8.7586 (LUMO)
       135                         -0.2925135              -7.9597
       136                         -0.2723675              -7.4115
       137                         -0.2668410              -7.2611
       138                         -0.2513092              -6.8385
       ...                                ...                  ...
       262                          0.7507529              20.4290
      -------------------------------------------------------------
                  HL-Gap            0.0092121 Eh            0.2507 eV
             Fermi-level           -0.3295162 Eh           -8.9666 eV

 SCC (total)                   0 d,  0 h,  0 min,  0.875 sec
 SCC setup                      ...        0 min,  0.000 sec (  0.050%)
 Dispersion                     ...        0 min,  0.004 sec (  0.464%)
 classical contributions        ...        0 min,  0.001 sec (  0.103%)
 integral evaluation            ...        0 min,  0.010 sec (  1.141%)
 iterations                     ...        0 min,  0.789 sec ( 90.174%)
 molecular gradient             ...        0 min,  0.045 sec (  5.148%)
 printout                       ...        0 min,  0.026 sec (  2.917%)

         :::::::::::::::::::::::::::::::::::::::::::::::::::::
         ::                     SUMMARY                     ::
         :::::::::::::::::::::::::::::::::::::::::::::::::::::
         :: total energy            -142.416894059317 Eh    ::
         :: gradient norm              0.000231345442 Eh/a0 ::
         :: HOMO-LUMO gap              0.250673676265 eV    ::
         ::.................................................::
         :: SCC energy              -145.090695647022 Eh    ::
         :: -> isotropic ES            0.050199059367 Eh    ::
         :: -> anisotropic ES          0.006556085983 Eh    ::
         :: -> anisotropic XC          0.065994157607 Eh    ::
         :: -> dispersion             -0.150005326590 Eh    ::
         :: repulsion energy           2.673801587705 Eh    ::
         :: add. restraining           0.000000000000 Eh    ::
         :: total charge              -0.000000000000 e     ::
         :::::::::::::::::::::::::::::::::::::::::::::::::::::

           -------------------------------------------------
          |                Property Printout                |
           -------------------------------------------------

    * Orbital Energies and Occupations

         #    Occupation            Energy/Eh            Energy/eV
      -------------------------------------------------------------
         1        2.0000           -0.6818083             -18.5529
       ...           ...                  ...                  ...
       121        2.0000           -0.4037561             -10.9868
       122        2.0000           -0.3995578             -10.8725
       123        2.0000           -0.3981650             -10.8346
       124        2.0000           -0.3966180             -10.7925
       125        2.0000           -0.3944811             -10.7344
       126        2.0000           -0.3862275             -10.5098
       127        2.0000           -0.3857440             -10.4966
       128        2.0000           -0.3764403             -10.2435
       129        2.0000           -0.3702334             -10.0746
       130        2.0000           -0.3643330              -9.9140
       131        2.0000           -0.3520885              -9.5808
       132        1.8269           -0.3340616              -9.0903
       133        1.1651           -0.3310854              -9.0093 (HOMO)
       134        0.0080           -0.3218733              -8.7586 (LUMO)
       135                         -0.2925135              -7.9597
       136                         -0.2723675              -7.4115
       137                         -0.2668410              -7.2611
       138                         -0.2513092              -6.8385
       139                         -0.2394681              -6.5163
       140                         -0.2365895              -6.4379
       141                         -0.2303403              -6.2679
       142                         -0.2229961              -6.0680
       143                         -0.2179324              -5.9302
       144                         -0.2114765              -5.7546
       ...                                ...                  ...
       262                          0.7507529              20.4290
      -------------------------------------------------------------
                  HL-Gap            0.0092121 Eh            0.2507 eV
             Fermi-level           -0.3295162 Eh           -8.9666 eV

     #   Z          covCN         q      C6AA      α(0)
     1   7 n        2.580    -0.428    31.191     8.294
     2   1 h        0.860     0.143     1.451     1.887
     3   1 h        0.860     0.143     1.452     1.887
     4   1 h        0.860     0.143     1.451     1.887
     5   6 c        2.911    -0.034    28.852     8.808
     6   6 c        2.919    -0.042    29.043     8.837
     7   6 c        2.918    -0.039    28.963     8.825
     8   6 c        2.921    -0.038    28.935     8.821
     9   6 c        2.919    -0.034    28.846     8.807
    10   6 c        2.911    -0.035    28.862     8.809
    11   6 c        2.977     0.014    27.696     8.633
    12   6 c        2.980     0.016    27.655     8.626
    13   6 c        2.971     0.013    27.723     8.637
    14   6 c        2.973     0.016    27.644     8.624
    15   6 c        2.987     0.015    27.666     8.628
    16   6 c        2.970     0.014    27.698     8.633
    17   6 c        2.996    -0.000    28.024     8.684
    18   6 c        2.975     0.014    27.703     8.634
    19   6 c        2.998     0.001    27.987     8.678
    20   6 c        2.910    -0.028    28.709     8.786
    21   6 c        2.919    -0.033    28.819     8.803
    22   6 c        2.921    -0.048    29.186     8.859
    23   6 c        2.974     0.012    27.753     8.641
    24   6 c        2.975    -0.006    28.161     8.705
    25   6 c        2.975     0.010    27.784     8.646
    26   6 c        2.928    -0.042    29.032     8.836
    27   1 h        0.926     0.032     2.556     2.500
    28   6 c        2.981     0.015    27.668     8.628
    29   6 c        2.979    -0.032    28.798     8.803
    30   6 c        2.988     0.003    27.948     8.672
    31   6 c        2.995     0.002    27.973     8.676
    32   6 c        2.975     0.013    27.712     8.635
    33   6 c        2.920    -0.045    29.110     8.848
    34   6 c        2.920    -0.041    29.018     8.834
    35   6 c        2.975     0.014    27.702     8.633
    36   6 c        2.989     0.002    27.982     8.677
    37   6 c        2.984     0.007    27.864     8.659
    38   6 c        3.833    -0.082    22.042     6.680
    39   6 c        2.978     0.014    27.703     8.634
    40   6 c        2.839     0.218    23.416     7.930
    41   6 c        2.970    -0.032    28.789     8.801
    42   6 c        2.991     0.002    27.965     8.675
    43   6 c        2.988    -0.009    28.223     8.715
    44   6 c        2.972     0.013    27.729     8.638
    45   6 c        2.920    -0.047    29.157     8.855
    46   6 c        2.919    -0.032    28.804     8.801
    47   6 c        2.909    -0.028    28.702     8.785
    48   6 c        2.994    -0.001    28.034     8.685
    49   6 c        2.974     0.014    27.695     8.632
    50   6 c        2.990     0.002    27.973     8.676
    51   6 c        2.972     0.012    27.739     8.639
    52   6 c        2.980     0.007    27.854     8.657
    53   6 c        2.974     0.013    27.726     8.637
    54   6 c        2.990     0.004    27.930     8.669
    55   6 c        2.974     0.013    27.711     8.635
    56   6 c        2.974     0.015    27.683     8.631
    57   6 c        2.912    -0.035    28.860     8.809
    58   6 c        2.920    -0.032    28.799     8.800
    59   6 c        2.919    -0.040    28.988     8.829
    60   6 c        2.919    -0.048    29.191     8.860
    61   6 c        2.919    -0.041    29.019     8.834
    62   6 c        2.911    -0.035    28.862     8.809
    63   1 h        0.926     0.034     2.534     2.489
    64   1 h        0.926     0.033     2.550     2.497
    65   1 h        0.926     0.031     2.569     2.506
    66   1 h        0.926     0.032     2.563     2.504
    67   1 h        0.926     0.031     2.566     2.505
    68   1 h        0.925     0.032     2.556     2.500
    69   1 h        0.926     0.034     2.536     2.490
    70   1 h        0.926     0.033     2.538     2.491
    71   1 h        0.926     0.032     2.562     2.503
    72   1 h        0.925     0.033     2.539     2.492
    73   1 h        0.926     0.035     2.511     2.478
    74   1 h        0.925     0.035     2.511     2.478
    75   1 h        0.926     0.033     2.541     2.493
    76   1 h        0.926     0.034     2.535     2.490
    77   1 h        0.925     0.034     2.534     2.489
    78   1 h        0.925     0.032     2.554     2.499
    79   1 h        0.925     0.033     2.541     2.493
    80   1 h        0.926     0.032     2.563     2.504
    81   1 h        0.926     0.032     2.554     2.499
    82   1 h        0.927     0.047     2.356     2.400
    83   1 h        0.924     0.053     2.279     2.361
    84   8 o        0.858    -0.435    22.393     6.344
    85   1 h        0.925     0.126     1.562     1.954

 Mol. C6AA /au·bohr⁶  :     123901.455264
 Mol. C8AA /au·bohr⁸  :    3274184.142251
 Mol. α(0) /au        :        571.257716


Wiberg/Mayer (AO) data.
largest (>0.10) Wiberg bond orders for each atom

 ---------------------------------------------------------------------------
     #   Z sym  total        # sym  WBO       # sym  WBO       # sym  WBO
 ---------------------------------------------------------------------------
     1   7 n    2.937 --     3 h    0.979     4 h    0.979     2 h    0.979
     2   1 h    0.980 --     1 n    0.979
     3   1 h    0.980 --     1 n    0.979
     4   1 h    0.980 --     1 n    0.979
     5   6 c    3.973 --    10 c    1.693    12 c    1.167    71 h    0.967
     6   6 c    3.907 --    12 c    1.445    14 c    1.273    72 h    0.966
     7   6 c    3.819 --    14 c    1.359    16 c    1.291    73 h    0.966
     8   6 c    3.820 --    16 c    1.367    18 c    1.302    74 h    0.966
     9   6 c    3.848 --    20 c    1.446    18 c    1.299    75 h    0.969
    10   6 c    3.974 --     5 c    1.693    11 c    1.165    67 h    0.967
    11   6 c    3.978 --    22 c    1.450    24 c    1.203    10 c    1.165
    12   6 c    3.977 --     6 c    1.445    13 c    1.201     5 c    1.167
    13   6 c    3.939 --    26 c    1.340    12 c    1.201    24 c    1.200
    14   6 c    3.978 --     7 c    1.359     6 c    1.273    15 c    1.186
    15   6 c    3.951 --    26 c    1.404    14 c    1.186    28 c    1.155
    16   6 c    3.984 --     8 c    1.367     7 c    1.291    17 c    1.166
    17   6 c    3.951 --    28 c    1.314    30 c    1.244    16 c    1.166
    18   6 c    3.984 --     8 c    1.302     9 c    1.299    19 c    1.222
    19   6 c    3.946 --    30 c    1.266    32 c    1.228    18 c    1.222
    20   6 c    3.984 --    21 c    1.447     9 c    1.446    81 h    0.970
    21   6 c    3.845 --    20 c    1.447    32 c    1.297    63 h    0.969
    22   6 c    3.915 --    11 c    1.450    23 c    1.279    68 h    0.966
    23   6 c    3.983 --    34 c    1.355    22 c    1.279    36 c    1.187
    24   6 c    3.945 --    25 c    1.329    11 c    1.203    13 c    1.200
    25   6 c    3.963 --    36 c    1.353    24 c    1.329    38 c    1.034
    26   6 c    3.953 --    15 c    1.404    13 c    1.340    82 h    0.947
    27   1 h    0.998 --    47 c    0.970
    28   6 c    3.971 --    17 c    1.314    29 c    1.269    15 c    1.155
    29   6 c    3.925 --    42 c    1.276    28 c    1.269    40 c    1.078
    30   6 c    3.985 --    19 c    1.266    31 c    1.255    17 c    1.244
    31   6 c    3.959 --    42 c    1.278    30 c    1.255    44 c    1.190
    32   6 c    3.985 --    21 c    1.297    33 c    1.297    19 c    1.228
    33   6 c    3.809 --    44 c    1.380    32 c    1.297    64 h    0.967
    34   6 c    3.855 --    23 c    1.355    35 c    1.334    69 h    0.966
    35   6 c    3.981 --    34 c    1.334    46 c    1.288    48 c    1.197
    36   6 c    3.958 --    25 c    1.353    37 c    1.205    23 c    1.187
    37   6 c    3.970 --    48 c    1.352    36 c    1.205    50 c    1.178
    38   6 c    3.986 --    25 c    1.034    39 c    1.026    83 h    0.917
                            85 h    0.873
    39   6 c    3.960 --    50 c    1.418    52 c    1.265    38 c    1.026
    40   6 c    3.916 --    84 o    1.641    29 c    1.078    41 c    1.058
    41   6 c    3.921 --    52 c    1.292    54 c    1.291    40 c    1.058
    42   6 c    3.976 --    31 c    1.278    29 c    1.276    43 c    1.198
    43   6 c    3.894 --    54 c    1.276    56 c    1.220    42 c    1.198
    44   6 c    3.985 --    33 c    1.380    45 c    1.255    31 c    1.190
    45   6 c    3.834 --    56 c    1.436    44 c    1.255    65 h    0.967
    46   6 c    3.847 --    47 c    1.459    35 c    1.288    70 h    0.969
    47   6 c    3.975 --    46 c    1.459    58 c    1.428    27 h    0.970
    48   6 c    3.971 --    37 c    1.352    35 c    1.197    49 c    1.189
    49   6 c    3.980 --    59 c    1.316    58 c    1.314    48 c    1.189
    50   6 c    3.965 --    39 c    1.418    37 c    1.178    51 c    1.160
    51   6 c    3.982 --    59 c    1.362    60 c    1.301    50 c    1.160
    52   6 c    3.955 --    41 c    1.292    39 c    1.265    53 c    1.175
    53   6 c    3.978 --    60 c    1.393    61 c    1.251    52 c    1.175
    54   6 c    3.953 --    41 c    1.291    43 c    1.276    55 c    1.169
    55   6 c    3.975 --    61 c    1.479    54 c    1.169    62 c    1.168
    56   6 c    3.979 --    45 c    1.436    43 c    1.220    57 c    1.163
    57   6 c    3.967 --    62 c    1.694    56 c    1.163    66 h    0.968
    58   6 c    3.840 --    47 c    1.428    49 c    1.314    76 h    0.969
    59   6 c    3.814 --    51 c    1.362    49 c    1.316    77 h    0.966
    60   6 c    3.858 --    53 c    1.393    51 c    1.301    78 h    0.966
    61   6 c    3.905 --    55 c    1.479    53 c    1.251    79 h    0.966
    62   6 c    3.973 --    57 c    1.694    55 c    1.168    80 h    0.967
    63   1 h    0.998 --    21 c    0.969
    64   1 h    0.998 --    33 c    0.967
    65   1 h    0.998 --    45 c    0.967
    66   1 h    0.997 --    57 c    0.968
    67   1 h    0.998 --    10 c    0.967
    68   1 h    0.998 --    22 c    0.966
    69   1 h    0.997 --    34 c    0.966
    70   1 h    0.998 --    46 c    0.969
    71   1 h    0.997 --     5 c    0.967
    72   1 h    0.997 --     6 c    0.966
    73   1 h    0.997 --     7 c    0.966
    74   1 h    0.997 --     8 c    0.966
    75   1 h    0.998 --     9 c    0.969
    76   1 h    0.998 --    58 c    0.969
    77   1 h    0.997 --    59 c    0.966
    78   1 h    0.997 --    60 c    0.966
    79   1 h    0.997 --    61 c    0.966
    80   1 h    0.997 --    62 c    0.967
    81   1 h    0.998 --    20 c    0.970
    82   1 h    0.997 --    26 c    0.947
    83   1 h    0.992 --    38 c    0.917
    84   8 o    1.961 --    40 c    1.641
    85   1 h    0.980 --    38 c    0.873
 ---------------------------------------------------------------------------

Topologies differ in total number of bonds
Writing topology from bond orders to xtbtopo.mol

molecular dipole:
                 x           y           z       tot (Debye)
 q only:        0.050      -0.435      -0.966
   full:        0.130      -0.636      -0.809       2.638
molecular quadrupole (traceless):
                xx          xy          yy          xz          yz          zz
 q only:       38.893      -8.274      23.628     -12.267     -21.615     -62.522
  q+dip:       53.156      -6.235      39.514     -14.303     -17.728     -92.669
   full:       41.933      -5.241      29.341     -13.524     -15.970     -71.274


           -------------------------------------------------
          | TOTAL ENERGY             -142.416894059317 Eh   |
          | GRADIENT NORM               0.000231345442 Eh/α |
          | HOMO-LUMO GAP               0.250673676265 eV   |
           -------------------------------------------------

------------------------------------------------------------------------
 * finished run on 2024/11/28 at 16:27:26.889     
------------------------------------------------------------------------
 total:
 * wall-time:     0 d,  0 h,  0 min,  0.900 sec
 *  cpu-time:     0 d,  0 h,  0 min,  2.540 sec
 * ratio c/w:     2.822 speedup
 SCF:
 * wall-time:     0 d,  0 h,  0 min,  0.876 sec
 *  cpu-time:     0 d,  0 h,  0 min,  2.398 sec
 * ratio c/w:     2.736 speedup

