      -----------------------------------------------------------      
     |                   =====================                   |     
     |                           x T B                           |     
     |                   =====================                   |     
     |                         S. Grimme                         |     
     |          Mulliken Center for Theoretical Chemistry        |     
     |                    University of Bonn                     |     
      -----------------------------------------------------------      

   * xtb version 6.7.1 (edcfbbe) compiled by 'conda@3ef47c1a292c' on 2024-11-25

   xtb is free software: you can redistribute it and/or modify it under
   the terms of the GNU Lesser General Public License as published by
   the Free Software Foundation, either version 3 of the License, or
   (at your option) any later version.
   
   xtb is distributed in the hope that it will be useful,
   but WITHOUT ANY WARRANTY; without even the implied warranty of
   MERCHANTABILITY or FITNESS FOR A PARTICULAR PURPOSE.  See the
   GNU Lesser General Public License for more details.
   
   Cite this work as:
   * C. Bannwarth, E. Caldeweyher, S. Ehlert, A. Hansen, P. Pracht,
     J. Seibert, S. Spicher, S. Grimme, WIREs Comput. Mol. Sci., 2020, 11,
     e01493. DOI: 10.1002/wcms.1493
   
   for GFN2-xTB:
   * C. Bannwarth, S. Ehlert and S. Grimme., J. Chem. Theory Comput., 2019,
     15, 1652-1671. DOI: 10.1021/acs.jctc.8b01176
   for GFN1-xTB:
   * S. Grimme, C. Bannwarth, P. Shushkov, J. Chem. Theory Comput., 2017,
     13, 1989-2009. DOI: 10.1021/acs.jctc.7b00118
   for GFN0-xTB:
   * P. Pracht, E. Caldeweyher, S. Ehlert, S. Grimme, ChemRxiv, 2019, preprint.
     DOI: 10.26434/chemrxiv.8326202.v1
   for GFN-FF:
   * S. Spicher and S. Grimme, Angew. Chem. Int. Ed., 2020, 59, 15665-15673.
     DOI: 10.1002/anie.202004239
   
   for ALPB and GBSA implicit solvation:
   * S. Ehlert, M. Stahn, S. Spicher, S. Grimme, J. Chem. Theory Comput.,
     2021, 17, 4250-4261. DOI: 10.1021/acs.jctc.1c00471
   
   for ddCOSMO and CPCM-X implicit solvation:
   * M. Stahn, S. Ehlert, S. Grimme, J. Phys. Chem. A,
     2023, XX, XXXX-XXXX. DOI: 10.1021/acs.jpca.3c04382
   
   for DFT-D4:
   * E. Caldeweyher, C. Bannwarth and S. Grimme, J. Chem. Phys., 2017,
     147, 034112. DOI: 10.1063/1.4993215
   * E. Caldeweyher, S. Ehlert, A. Hansen, H. Neugebauer, S. Spicher,
     C. Bannwarth and S. Grimme, J. Chem. Phys., 2019, 150, 154122.
     DOI: 10.1063/1.5090222
   * E. Caldeweyher, J.-M. Mewes, S. Ehlert and S. Grimme, Phys. Chem. Chem. Phys.
     2020, 22, 8499-8512. DOI: 10.1039/D0CP00502A
   
   for sTDA-xTB:
   * S. Grimme and C. Bannwarth, J. Chem. Phys., 2016, 145, 054103.
     DOI: 10.1063/1.4959605
   
   in the mass-spec context:
   * V. Asgeirsson, C. Bauer and S. Grimme, Chem. Sci., 2017, 8, 4879.
     DOI: 10.1039/c7sc00601b
   * J. Koopman and S. Grimme, ACS Omega 2019, 4, 12, 15120-15133.
     DOI: 10.1021/acsomega.9b02011
   
   for metadynamics refer to:
   * S. Grimme, J. Chem. Theory Comput., 2019, 155, 2847-2862
     DOI: 10.1021/acs.jctc.9b00143
   
   for SPH calculations refer to:
   * S. Spicher and S. Grimme, J. Chem. Theory Comput., 2021, 17, 1701-1714
     DOI: 10.1021/acs.jctc.0c01306
   
   for ONIOM refer to:
   * C. Plett, A. Katbashev, S. Ehlert, S. Grimme, M. Bursch,
     Phys. Chem. Chem. Phys., 2023, 25, 17860-17868. DOI: 10.1039/D3CP02178E
   
   for DIPRO refer to:
   * J. Kohn, N. Gildemeister, S. Grimme, D. Fazzi, A. Hansen,
     J. Chem. Phys., 2023, just accepted.
   
   for PTB refer to:
   * S. Grimme, M. Mueller, A. Hansen, J. Chem. Phys., 2023, 158, 124111.
     DOI: 10.1063/5.0137838
   
   with help from (in alphabetical order)
   P. Atkinson, C. Bannwarth, F. Bohle, G. Brandenburg, E. Caldeweyher
   M. Checinski, S. Dohm, S. Ehlert, S. Ehrlich, I. Gerasimov, C. Hölzer
   A. Katbashev, J. Kohn, J. Koopman, C. Lavigne, S. Lehtola, F. März, M. Müller,
   F. Musil, H. Neugebauer, J. Pisarek, C. Plett, P. Pracht, F. Pultar,
   J. Seibert, P. Shushkov, S. Spicher, M. Stahn, M. Steiner, T. Strunk,
   J. Stückrath, T. Rose, and J. Unsleber
   
 * started run on 2024/12/05 at 16:17:54.907     
   ID    Z sym.   atoms
    1    7 n      1
    2    1 h      2-4, 27, 63-83, 85
    3    6 c      5-26, 28-62
    4    8 o      84

           -------------------------------------------------
          |                Calculation Setup                |
           -------------------------------------------------

          program call               : xtb interaction --opt
          coordinate file            : interaction
          omp threads                :                    16


molecular fragmentation (1/2 indicates fragments):
111122222222222222222222222222222222222222222222222222222222222222222222
2222222222222
# atoms in fragment 1/2:     4    81
 fragment masses (1/2) :       17.03      723.79
CMA distance (Bohr)    :  23.090
constraining FC (au)   :  0.0500

           -------------------------------------------------
          |                 G F N 2 - x T B                 |
           -------------------------------------------------

        Reference                      10.1021/acs.jctc.8b01176
      * Hamiltonian:
        H0-scaling (s, p, d)           1.850000    2.230000    2.230000
        zeta-weighting                 0.500000
      * Dispersion:
        s8                             2.700000
        a1                             0.520000
        a2                             5.000000
        s9                             5.000000
      * Repulsion:
        kExp                           1.500000    1.000000
        rExp                           1.000000
      * Coulomb:
        alpha                          2.000000
        third order                    shell-resolved
        anisotropic                    true
        a3                             3.000000
        a5                             4.000000
        cn-shift                       1.200000
        cn-exp                         4.000000
        max-rad                        5.000000


          ...................................................
          :                      SETUP                      :
          :.................................................:
          :  # basis functions                 262          :
          :  # atomic orbitals                 262          :
          :  # shells                          144          :
          :  # electrons                       265          :
          :  max. iterations                   250          :
          :  Hamiltonian                  GFN2-xTB          :
          :  restarted?                      false          :
          :  GBSA solvation                  false          :
          :  PC potential                    false          :
          :  electronic temp.          300.0000000     K    :
          :  accuracy                    1.0000000          :
          :  -> integral cutoff          0.2500000E+02      :
          :  -> integral neglect         0.1000000E-07      :
          :  -> SCF convergence          0.1000000E-05 Eh   :
          :  -> wf. convergence          0.1000000E-03 e    :
          :  Broyden damping             0.4000000          :
          :  net charge                          0          :
          :  unpaired electrons                  0          :
          ...................................................

 iter      E             dE          RMSdq      gap      omega  full diag
   1   -144.9912654 -0.144991E+03  0.486E+00    0.29       0.0  T
   2   -144.8133300  0.177935E+00  0.299E+00    0.31       1.0  T
   3   -142.9810112  0.183232E+01  0.337E+00    0.33       1.0  T
   4   -144.7318219 -0.175081E+01  0.139E+00    0.73       1.0  T
   5   -144.7785776 -0.467557E-01  0.146E+00    0.86       1.0  T
   6   -145.0021935 -0.223616E+00  0.819E-01    0.36       1.0  T
   7   -145.0497086 -0.475151E-01  0.528E-01    0.30       1.0  T
   8   -145.0675258 -0.178172E-01  0.408E-01    0.31       1.0  T
   9   -145.0778036 -0.102778E-01  0.245E-01    0.21       1.0  T
  10   -145.0819034 -0.409976E-02  0.233E-01    0.27       1.0  T
  11   -145.0889794 -0.707598E-02  0.427E-02    0.25       1.0  T
  12   -145.0886501  0.329208E-03  0.559E-02    0.25       1.0  T
  13   -145.0891077 -0.457532E-03  0.133E-02    0.25       1.0  T
  14   -145.0891172 -0.951323E-05  0.881E-03    0.25       1.2  T
  15   -145.0891276 -0.103613E-04  0.244E-03    0.25       4.4  T
  16   -145.0891280 -0.406513E-06  0.165E-03    0.25       6.6  T
  17   -145.0891283 -0.371633E-06  0.516E-04    0.25      21.0  T
  18   -145.0891283  0.125073E-08  0.510E-04    0.25      21.2  T

   *** convergence criteria satisfied after 18 iterations ***

         #    Occupation            Energy/Eh            Energy/eV
      -------------------------------------------------------------
         1        2.0000           -0.6818083             -18.5529
       ...           ...                  ...                  ...
       127        2.0000           -0.3857440             -10.4966
       128        2.0000           -0.3764403             -10.2435
       129        2.0000           -0.3702334             -10.0746
       130        2.0000           -0.3643330              -9.9140
       131        2.0000           -0.3520885              -9.5808
       132        1.8269           -0.3340616              -9.0903
       133        1.1651           -0.3310854              -9.0093 (HOMO)
       134        0.0080           -0.3218733              -8.7586 (LUMO)
       135                         -0.2925135              -7.9597
       136                         -0.2723675              -7.4115
       137                         -0.2668410              -7.2611
       138                         -0.2513092              -6.8385
       ...                                ...                  ...
       262                          0.7507529              20.4290
      -------------------------------------------------------------
                  HL-Gap            0.0092121 Eh            0.2507 eV
             Fermi-level           -0.3295162 Eh           -8.9666 eV

 SCC (total)                   0 d,  0 h,  0 min,  0.801 sec
 SCC setup                      ...        0 min,  0.001 sec (  0.084%)
 Dispersion                     ...        0 min,  0.003 sec (  0.420%)
 classical contributions        ...        0 min,  0.000 sec (  0.032%)
 integral evaluation            ...        0 min,  0.012 sec (  1.476%)
 iterations                     ...        0 min,  0.723 sec ( 90.294%)
 molecular gradient             ...        0 min,  0.039 sec (  4.811%)
 printout                       ...        0 min,  0.023 sec (  2.880%)

         :::::::::::::::::::::::::::::::::::::::::::::::::::::
         ::                     SUMMARY                     ::
         :::::::::::::::::::::::::::::::::::::::::::::::::::::
         :: total energy            -142.416894059317 Eh    ::
         :: gradient norm              0.000231345442 Eh/a0 ::
         :: HOMO-LUMO gap              0.250673676266 eV    ::
         ::.................................................::
         :: SCC energy              -145.090695647022 Eh    ::
         :: -> isotropic ES            0.050199059367 Eh    ::
         :: -> anisotropic ES          0.006556085983 Eh    ::
         :: -> anisotropic XC          0.065994157607 Eh    ::
         :: -> dispersion             -0.150005326590 Eh    ::
         :: repulsion energy           2.673801587705 Eh    ::
         :: add. restraining           0.000000000000 Eh    ::
         :: total charge              -0.000000000000 e     ::
         :::::::::::::::::::::::::::::::::::::::::::::::::::::

      ----------------------------------------------------------- 
     |                   =====================                   |
     |                        A N C O P T                        |
     |                   =====================                   |
     |               Approximate Normal Coordinate               |
     |                Rational Function Optimizer                |
      ----------------------------------------------------------- 
      ----------------------------------------------------------- 
     |                   =====================                   |
     |                        A N C O P T                        |
     |                   =====================                   |
     |               Approximate Normal Coordinate               |
     |                Rational Function Optimizer                |
      ----------------------------------------------------------- 

          ...................................................
          :                      SETUP                      :
          :.................................................:
          :   optimization level            normal          :
          :   max. optcycles                   255          :
          :   ANC micro-cycles                  20          :
          :   degrees of freedom               249          :
          :.................................................:
          :   RF solver                   davidson          :
          :   write xtbopt.log                true          :
          :   linear?                        false          :
          :   energy convergence         0.5000000E-05 Eh   :
          :   grad. convergence          0.1000000E-02 Eh/α :
          :   maxmium RF displ.          1.0000000          :
          :   Hlow (freq-cutoff)         0.1000000E-01      :
          :   Hmax (freq-cutoff)         5.0000000          :
          :   S6 in model hess.         20.0000000          :
          ...................................................

generating ANC from exact Hessian ...
Using Lindh-Hessian (1995)
 Shifting diagonal of input Hessian by    9.9858843518357814E-003
 Lowest  eigenvalues of input Hessian
    0.000000    0.000000    0.000000    0.000000    0.000000    0.000000
    0.010000    0.010015    0.010038    0.010241    0.010715    0.011066
    0.011066    0.011090    0.011146    0.011305    0.011938    0.013466
 Highest eigenvalues
    2.102856    2.124234    2.152799    2.162717    2.165932    2.195650


........................................................................
.............................. CYCLE    1 ..............................
........................................................................

 iter      E             dE          RMSdq      gap      omega  full diag
   1   -145.0891284 -0.145089E+03  0.169E-04    0.25       0.0  T
   2   -145.0891282  0.123431E-06  0.866E-04    0.25      12.5  T
   3   -145.0891283 -0.107732E-06  0.321E-04    0.25      33.8  T
     SCC iter.                  ...        0 min,  0.122 sec
     gradient                   ...        0 min,  0.043 sec
 * total energy  :  -142.4168941 Eh     change       -0.1502227E-07 Eh
   gradient norm :     0.0002308 Eh/α   predicted     0.0000000E+00 (-100.00%)
   displ. norm   :     0.0129305 α      lambda       -0.7179801E-07
   maximum displ.:     0.0114278 α      in ANC's #5, #10, #7, ...

   *** GEOMETRY OPTIMIZATION CONVERGED AFTER 1 ITERATIONS ***

------------------------------------------------------------------------
 total energy gain   :        -0.0000000 Eh       -0.0000 kcal/mol
 total RMSD          :         0.0000002 a0        0.0000 Å
 total power (kW/mol):        -0.0000394 (step)   -0.0002 (real)
------------------------------------------------------------------------

 ANCopt (total)                0 d,  0 h,  0 min,  0.251 sec
 optimizer setup                ...        0 min,  0.000 sec (  0.067%)
 model hessian                  ...        0 min,  0.025 sec (  9.801%)
 ANC generation                 ...        0 min,  0.019 sec (  7.606%)
 coordinate transformation      ...        0 min,  0.000 sec (  0.032%)
 single point calculation       ...        0 min,  0.207 sec ( 82.292%)
 optimization log               ...        0 min,  0.000 sec (  0.100%)
 hessian update                 ...        0 min,  0.000 sec (  0.001%)
 rational function              ...        0 min,  0.000 sec (  0.057%)

================
 final structure:
================
$coord
       -2.60937162791365        1.68714748439428       -0.01163192570348      n
       -4.01041457698390        0.43855252127951       -0.38512996372594      h
       -2.35261453931077        1.72137042451791        1.88423836032661      h
       -1.00348803607247        1.01126236935069       -0.80267817912615      h
        2.40754264517974        1.39673236998268       18.96324785415323      c
        0.09541865117381        5.40574287851497       19.39485328635410      c
       -2.25344106962371        9.47307447456425       19.69509459557743      c
       -4.51223575918511       13.51825306139363       19.39706776609965      c
       -6.78797993782667       17.55821511953896       19.06469778168612      c
        4.57433780359709        0.12109898833682       18.55292755042511      c
        6.94403603908933        1.40363546312671       18.24600998021457      c
        2.32209842741533        4.10588364882165       18.92553863112369      c
        4.57618184584368        5.44390596908747       18.23921321445857      c
       -0.03454328294162        8.07378412040893       19.41858001333836      c
        2.23826065461668        9.40158739608972       18.84506580879873      c
       -2.27951733692465       12.12024735874453       19.37241353859607      c
        0.06676477054160       13.45358945102996       19.08221696999057      c
       -4.52911952253870       16.15931056207001       19.10453297835675      c
       -2.19816918873804       17.47716560987434       18.85500012490470      c
       -6.74607721438043       20.15446311246796       18.77901718988667      c
       -4.48798552553046       21.44377574816899       18.53441144255387      c
        9.19895781967170        0.08203670082994       18.24207177017223      c
       11.57083496956609        1.29785545428314       18.30315589836881      c
        6.94739736668771        4.10408624408184       18.09468845402383      c
        9.32384108433507        5.30537548858159       18.14974715916511      c
        4.29178464017533        8.06149789204364       17.93516159879066      c
       22.49694269874524        0.21973835036142       19.03494090890499      h
        2.34771010235377       12.10955337339707       19.05846186464636      c
        4.65115782055676       13.46015945128396       19.27266204207553      c
        0.09639525976351       16.12336236228991       18.89177145190761      c
        2.42118906513696       17.43099135617298       18.69702143848604      c
       -2.16716036963624       20.14856022560081       18.57188867520831      c
        0.16299852344758       21.40992275851692       18.36007140670321      c
       13.86408787666946        0.00217739842105       18.39531413549948      c
       16.17100417777040        1.28020621021329       18.60851716301058      c
       11.59785895712911        3.99630376224508       18.36408806280297      c
       13.92969671446058        5.32820948456563       18.68397599458500      c
        9.40556214015155        8.08433544368463       18.28926378907521      c
       11.76707080204425        9.37723007148493       19.00916729031249      c
        6.93344054235482       12.34200374921218       20.33711326679542      c
        9.36497935773492       13.41114308555364       19.50977845539608      c
        4.71090105611952       16.09579389403534       18.92503867435644      c
        7.07212170717022       17.39714636117525       18.91732208611050      c
        2.45144073066071       20.11823070865616       18.44270528671424      c
        4.81875945337668       21.35799457970655       18.34644476805537      c
       18.48911174736878       -0.02369354326097       18.70177321108285      c
       20.74166476761855        1.26121894767901       18.97183163802365      c
       16.19377375027558        3.97680469508138       18.79266117840431      c
       18.54278358276596        5.28611015616133       19.10485194071080      c
       13.99046683850646        8.02190613766926       18.99944382709262      c
       16.34202405977594        9.34049585384496       19.28193558737681      c
       11.65749616391768       12.02701119562322       19.36848331393722      c
       14.02077203285145       13.36215799503416       19.33929463952645      c
        9.36523753027941       16.04645961405077       19.11702219358383      c
       11.73442702151012       17.35792978291414       18.98116767138522      c
        7.07666627955895       20.06335784097160       18.57996879859341      c
        9.47443937458676       21.32900328731180       18.49683406149457      c
       20.78404969077915        3.86917252390894       19.17538893825077      c
       18.56584525861223        7.93050683471834       19.31676677666509      c
       16.27235257206463       11.99908717419148       19.36478948839398      c
       13.96333501969883       16.03536078987617       19.20909802352106      c
       11.67132345360928       20.05088213381202       18.68581935728745      c
       -4.48359826590090       23.47370856314226       18.31690901616068      h
        0.16647370369958       23.44390347869196       18.16921142730533      h
        4.84481559228159       23.38769497094853       18.11421126730826      h
        9.46785443636019       23.35915302949196       18.26999228403269      h
        4.59737901611964       -1.92149900473375       18.56707706696851      h
        9.15472034887924       -1.96026784234283       18.30177988502178      h
       13.86682307731370       -2.03977461390917       18.32436731142390      h
       18.47793794473793       -2.06062195492961       18.56368052409302      h
        0.66491058552532        0.39529437751705       19.32875737651548      h
       -1.61487276160690        4.34326566206914       19.74755335425138      h
       -4.01820470343347        8.51027615065512       20.05818366268814      h
       -6.29411425006874       12.54853699036849       19.64240896632074      h
       -8.56619277682087       16.57404452399884       19.25651348008192      h
       22.56241267932436        4.84715501201183       19.39871141770582      h
       20.36097061782687        8.88642209964847       19.51370921389049      h
       18.04310043366679       13.01887600572495       19.38933603744045      h
       15.73794702978539       17.04941779449416       19.22386751389681      h
       13.45884546615648       21.03765054853432       18.61479496100047      h
       -8.50493610869305       21.19157328331164       18.74955832325635      h
        5.59598865799373        9.18455710010509       16.87744088787261      h
        8.86928028358384        8.91318646117902       16.47176774427312      h
        6.79858797256517       10.72923091095584       22.01384668305035      o
        7.99101514725280        8.52028007755057       19.71564126934150      h
$end

 Bond Distances (Angstroems)
 ---------------------------
N1-H2=1.0126         N1-H3=1.0126         N1-H4=1.0126         H2-N1=1.0126         H3-N1=1.0126         H4-N1=1.0126         
C5-C10=1.3482        C5-C12=1.4345        C5-H71=1.0810        C6-C12=1.3868        C6-C14=1.4136        C6-H72=1.0817        
C7-C14=1.3959        C7-C16=1.4113        C7-H73=1.0810        C8-C16=1.3941        C8-C18=1.4062        C8-H74=1.0813        
C9-C18=1.4062        C9-C20=1.3823        C9-H75=1.0803        C10-C5=1.3482        C10-C11=1.4351       C10-H67=1.0810       
C11-C10=1.4351       C11-C22=1.3831       C11-C24=1.4313       C12-C5=1.4345        C12-C6=1.3868        C12-C13=1.4339       
C13-C12=1.4339       C13-C24=1.4433       C13-C26=1.4026       C14-C6=1.4136        C14-C7=1.3959        C14-C15=1.4256       
C15-C14=1.4256       C15-C26=1.3841       C15-C28=1.4386       C16-C7=1.4113        C16-C8=1.3941        C16-C17=1.4363       
C17-C16=1.4363       C17-C28=1.4010       C17-C30=1.4165       C18-C8=1.4062        C18-C9=1.4062        C18-C19=1.4231       
C19-C18=1.4231       C19-C30=1.4100       C19-C32=1.4217       C20-C9=1.3823        C20-C21=1.3821       C20-H81=1.0806       
C21-C20=1.3821       C21-C32=1.4066       C21-H63=1.0803       C22-C11=1.3831       C22-C23=1.4108       C22-H68=1.0815       
C23-C22=1.4108       C23-C34=1.3947       C23-C36=1.4284       C24-C11=1.4313       C24-C13=1.4433       C24-C25=1.4094       
C25-C24=1.4094       C25-C36=1.3931       C25-C38=1.4730       C26-C13=1.4026       C26-C15=1.3841       C26-H82=1.0690       
H27-C47=1.0806       C28-C15=1.4386       C28-C17=1.4010       C28-C29=1.4176       C29-C28=1.4176       C29-C40=1.4581       
C29-C42=1.4072       C30-C17=1.4165       C30-C19=1.4100       C30-C31=1.4152       C31-C30=1.4152       C31-C42=1.4078       
C31-C44=1.4285       C32-C19=1.4217       C32-C21=1.4066       C32-C33=1.4066       C33-C32=1.4066       C33-C44=1.3913       
C33-H64=1.0811       C34-C23=1.3947       C34-C35=1.4001       C34-H69=1.0812       C35-C34=1.4001       C35-C46=1.4083       
C35-C48=1.4304       C36-C23=1.4284       C36-C25=1.3931       C36-C37=1.4311       C37-C36=1.4311       C37-C48=1.3965       
C37-C50=1.4355       C38-C25=1.4730       C38-C39=1.4747       C38-H83=1.0945       C38-H85=1.0878       C39-C38=1.4747       
C39-C50=1.3779       C39-C52=1.4162       C40-C29=1.4581       C40-C41=1.4722       C40-O84=1.2332       C41-C40=1.4722       
C41-C52=1.4191       C41-C54=1.4100       C42-C29=1.4072       C42-C31=1.4078       C42-C43=1.4267       C43-C42=1.4267       
C43-C54=1.4123       C43-C56=1.4221       C44-C31=1.4285       C44-C33=1.3913       C44-C45=1.4150       C45-C44=1.4150       
C45-C56=1.3828       C45-H65=1.0812       C46-C35=1.4083       C46-C47=1.3797       C46-H70=1.0804       C47-H27=1.0806       
C47-C46=1.3797       C47-C58=1.3844       C48-C35=1.4304       C48-C37=1.3965       C48-C49=1.4327       C49-C48=1.4327       
C49-C58=1.4037       C49-C59=1.4039       C50-C37=1.4355       C50-C39=1.3779       C50-C51=1.4345       C51-C50=1.4345       
C51-C59=1.3935       C51-C60=1.4080       C52-C39=1.4162       C52-C41=1.4191       C52-C53=1.4365       C53-C52=1.4365       
C53-C60=1.3929       C53-C61=1.4166       C54-C41=1.4100       C54-C43=1.4123       C54-C55=1.4348       C55-C54=1.4348       
C55-C61=1.3768       C55-C62=1.4340       C56-C43=1.4221       C56-C45=1.3828       C56-C57=1.4354       C57-C56=1.4354       
C57-C62=1.3487       C57-H66=1.0810       C58-C47=1.3844       C58-C49=1.4037       C58-H76=1.0805       C59-C49=1.4039       
C59-C51=1.3935       C59-H77=1.0813       C60-C51=1.4080       C60-C53=1.3929       C60-H78=1.0814       C61-C53=1.4166       
C61-C55=1.3768       C61-H79=1.0816       C62-C55=1.4340       C62-C57=1.3487       C62-H80=1.0811       H63-C21=1.0803       
H64-C33=1.0811       H65-C45=1.0812       H66-C57=1.0810       H67-C10=1.0810       H68-C22=1.0815       H69-C34=1.0812       
H70-C46=1.0804       H71-C5=1.0810        H72-C6=1.0817        H73-C7=1.0810        H74-C8=1.0813        H75-C9=1.0803        
H76-C58=1.0805       H77-C59=1.0813       H78-C60=1.0814       H79-C61=1.0816       H80-C62=1.0811       H81-C20=1.0806       
H82-C26=1.0690       H83-C38=1.0945       O84-C40=1.2332       H85-C38=1.0878       
 C  H  Rav=1.0814 sigma=0.0040  Rmin=1.0690  Rmax=1.0945    23
 C  C  Rav=1.4127 sigma=0.0243  Rmin=1.3482  Rmax=1.4747    74
 N  H  Rav=1.0126 sigma=0.0000  Rmin=1.0126  Rmax=1.0126     3
 O  C  Rav=1.2332 sigma=0.0000  Rmin=1.2332  Rmax=1.2332     1

 selected bond angles (degree)
 --------------------
H3-N1-H2=107.66                H4-N1-H2=107.66                H4-N1-H3=107.66                C12-C5-C10=121.67              
H71-C5-C10=120.59              H71-C5-C12=117.74              C14-C6-C12=122.57              H72-C6-C12=118.95              
H72-C6-C14=118.48              C16-C7-C14=121.47              H73-C7-C14=119.69              H73-C7-C16=118.74              
C18-C8-C16=122.13              H74-C8-C16=119.23              H74-C8-C18=118.64              C20-C9-C18=120.75              
H75-C9-C18=119.03              H75-C9-C20=120.22              C11-C10-C5=121.64              H67-C10-C5=120.61              
H67-C10-C11=117.63             

 selected dihedral angles (degree)
 ---------------------------------
C11-C10-C5-C12=  4.78         C11-C10-C5-H71=184.60         H67-C10-C5-C12=180.72         H67-C10-C5-H71=  0.54         

 CMA Distance (Angstroems)
 ---------------------------
R(CMA): 12.2188
           -------------------------------------------------
          |                Final Singlepoint                |
           -------------------------------------------------

          ...................................................
          :                      SETUP                      :
          :.................................................:
          :  # basis functions                 262          :
          :  # atomic orbitals                 262          :
          :  # shells                          144          :
          :  # electrons                       265          :
          :  max. iterations                   250          :
          :  Hamiltonian                  GFN2-xTB          :
          :  restarted?                      false          :
          :  GBSA solvation                  false          :
          :  PC potential                    false          :
          :  electronic temp.          300.0000000     K    :
          :  accuracy                    1.0000000          :
          :  -> integral cutoff          0.2500000E+02      :
          :  -> integral neglect         0.1000000E-07      :
          :  -> SCF convergence          0.1000000E-05 Eh   :
          :  -> wf. convergence          0.1000000E-03 e    :
          :  Broyden damping             0.4000000          :
          :  net charge                          0          :
          :  unpaired electrons                  0          :
          ...................................................

 iter      E             dE          RMSdq      gap      omega  full diag
   1   -145.0891284 -0.145089E+03  0.151E-04    0.25       0.0  T
   2   -145.0891282  0.126409E-06  0.884E-04    0.25      12.3  T
   3   -145.0891284 -0.119610E-06  0.245E-04    0.25      44.3  T

   *** convergence criteria satisfied after 3 iterations ***

         #    Occupation            Energy/Eh            Energy/eV
      -------------------------------------------------------------
         1        2.0000           -0.6818040             -18.5528
       ...           ...                  ...                  ...
       127        2.0000           -0.3857431             -10.4966
       128        2.0000           -0.3764388             -10.2434
       129        2.0000           -0.3702320             -10.0745
       130        2.0000           -0.3643311              -9.9140
       131        2.0000           -0.3520881              -9.5808
       132        1.8269           -0.3340613              -9.0903
       133        1.1651           -0.3310854              -9.0093 (HOMO)
       134        0.0080           -0.3218746              -8.7587 (LUMO)
       135                         -0.2925123              -7.9597
       136                         -0.2723666              -7.4115
       137                         -0.2668410              -7.2611
       138                         -0.2513088              -6.8385
       ...                                ...                  ...
       262                          0.7507546              20.4291
      -------------------------------------------------------------
                  HL-Gap            0.0092108 Eh            0.2506 eV
             Fermi-level           -0.3295164 Eh           -8.9666 eV

 SCC (total)                   0 d,  0 h,  0 min,  0.196 sec
 SCC setup                      ...        0 min,  0.001 sec (  0.302%)
 Dispersion                     ...        0 min,  0.001 sec (  0.741%)
 classical contributions        ...        0 min,  0.000 sec (  0.074%)
 integral evaluation            ...        0 min,  0.008 sec (  4.334%)
 iterations                     ...        0 min,  0.122 sec ( 62.475%)
 molecular gradient             ...        0 min,  0.039 sec ( 19.955%)
 printout                       ...        0 min,  0.024 sec ( 12.104%)

         :::::::::::::::::::::::::::::::::::::::::::::::::::::
         ::                     SUMMARY                     ::
         :::::::::::::::::::::::::::::::::::::::::::::::::::::
         :: total energy            -142.416894082954 Eh    ::
         :: gradient norm              0.000230979484 Eh/a0 ::
         :: HOMO-LUMO gap              0.250637895017 eV    ::
         ::.................................................::
         :: SCC energy              -145.090695670659 Eh    ::
         :: -> isotropic ES            0.050192503997 Eh    ::
         :: -> anisotropic ES          0.006557140327 Eh    ::
         :: -> anisotropic XC          0.065993872212 Eh    ::
         :: -> dispersion             -0.150005053566 Eh    ::
         :: repulsion energy           2.673801587705 Eh    ::
         :: add. restraining           0.000000000000 Eh    ::
         :: total charge              -0.000000000000 e     ::
         :::::::::::::::::::::::::::::::::::::::::::::::::::::

           -------------------------------------------------
          |                Property Printout                |
           -------------------------------------------------

    * Orbital Energies and Occupations

         #    Occupation            Energy/Eh            Energy/eV
      -------------------------------------------------------------
         1        2.0000           -0.6818040             -18.5528
       ...           ...                  ...                  ...
       121        2.0000           -0.4037557             -10.9868
       122        2.0000           -0.3995580             -10.8725
       123        2.0000           -0.3981639             -10.8346
       124        2.0000           -0.3966176             -10.7925
       125        2.0000           -0.3944806             -10.7344
       126        2.0000           -0.3862279             -10.5098
       127        2.0000           -0.3857431             -10.4966
       128        2.0000           -0.3764388             -10.2434
       129        2.0000           -0.3702320             -10.0745
       130        2.0000           -0.3643311              -9.9140
       131        2.0000           -0.3520881              -9.5808
       132        1.8269           -0.3340613              -9.0903
       133        1.1651           -0.3310854              -9.0093 (HOMO)
       134        0.0080           -0.3218746              -8.7587 (LUMO)
       135                         -0.2925123              -7.9597
       136                         -0.2723666              -7.4115
       137                         -0.2668410              -7.2611
       138                         -0.2513088              -6.8385
       139                         -0.2394678              -6.5163
       140                         -0.2365891              -6.4379
       141                         -0.2303398              -6.2679
       142                         -0.2229964              -6.0680
       143                         -0.2179321              -5.9302
       144                         -0.2114753              -5.7545
       ...                                ...                  ...
       262                          0.7507546              20.4291
      -------------------------------------------------------------
                  HL-Gap            0.0092108 Eh            0.2506 eV
             Fermi-level           -0.3295164 Eh           -8.9666 eV

     #   Z          covCN         q      C6AA      α(0)
     1   7 n        2.580    -0.428    31.191     8.294
     2   1 h        0.860     0.143     1.451     1.887
     3   1 h        0.860     0.143     1.452     1.887
     4   1 h        0.860     0.143     1.451     1.887
     5   6 c        2.911    -0.034    28.852     8.808
     6   6 c        2.919    -0.042    29.043     8.837
     7   6 c        2.918    -0.039    28.963     8.825
     8   6 c        2.921    -0.038    28.935     8.821
     9   6 c        2.919    -0.034    28.846     8.807
    10   6 c        2.911    -0.035    28.862     8.809
    11   6 c        2.977     0.014    27.696     8.633
    12   6 c        2.980     0.016    27.655     8.626
    13   6 c        2.971     0.013    27.723     8.637
    14   6 c        2.973     0.016    27.644     8.624
    15   6 c        2.987     0.015    27.666     8.628
    16   6 c        2.970     0.014    27.698     8.633
    17   6 c        2.996    -0.000    28.024     8.684
    18   6 c        2.975     0.014    27.703     8.634
    19   6 c        2.998     0.001    27.987     8.678
    20   6 c        2.910    -0.028    28.709     8.786
    21   6 c        2.919    -0.033    28.819     8.803
    22   6 c        2.921    -0.048    29.186     8.859
    23   6 c        2.974     0.012    27.753     8.641
    24   6 c        2.975    -0.006    28.161     8.705
    25   6 c        2.975     0.010    27.784     8.646
    26   6 c        2.928    -0.042    29.032     8.836
    27   1 h        0.926     0.032     2.556     2.500
    28   6 c        2.981     0.015    27.668     8.628
    29   6 c        2.979    -0.032    28.798     8.803
    30   6 c        2.988     0.003    27.948     8.672
    31   6 c        2.995     0.002    27.973     8.676
    32   6 c        2.975     0.013    27.712     8.635
    33   6 c        2.920    -0.045    29.110     8.848
    34   6 c        2.920    -0.041    29.018     8.834
    35   6 c        2.975     0.014    27.702     8.633
    36   6 c        2.989     0.002    27.982     8.677
    37   6 c        2.984     0.007    27.864     8.659
    38   6 c        3.833    -0.082    22.042     6.680
    39   6 c        2.978     0.014    27.703     8.634
    40   6 c        2.839     0.218    23.416     7.930
    41   6 c        2.970    -0.032    28.789     8.801
    42   6 c        2.991     0.002    27.965     8.675
    43   6 c        2.988    -0.009    28.223     8.715
    44   6 c        2.972     0.013    27.729     8.638
    45   6 c        2.920    -0.047    29.157     8.855
    46   6 c        2.919    -0.032    28.804     8.801
    47   6 c        2.909    -0.028    28.702     8.785
    48   6 c        2.994    -0.001    28.034     8.685
    49   6 c        2.974     0.014    27.695     8.632
    50   6 c        2.990     0.002    27.973     8.676
    51   6 c        2.972     0.012    27.739     8.639
    52   6 c        2.980     0.007    27.854     8.657
    53   6 c        2.974     0.013    27.726     8.637
    54   6 c        2.990     0.004    27.930     8.669
    55   6 c        2.974     0.013    27.711     8.635
    56   6 c        2.974     0.015    27.683     8.631
    57   6 c        2.912    -0.035    28.860     8.809
    58   6 c        2.920    -0.032    28.799     8.800
    59   6 c        2.919    -0.040    28.988     8.829
    60   6 c        2.919    -0.048    29.191     8.860
    61   6 c        2.919    -0.041    29.019     8.834
    62   6 c        2.911    -0.035    28.862     8.809
    63   1 h        0.926     0.034     2.534     2.489
    64   1 h        0.926     0.033     2.550     2.497
    65   1 h        0.926     0.031     2.569     2.506
    66   1 h        0.926     0.032     2.563     2.504
    67   1 h        0.926     0.031     2.566     2.505
    68   1 h        0.925     0.032     2.556     2.500
    69   1 h        0.926     0.034     2.536     2.490
    70   1 h        0.926     0.033     2.538     2.491
    71   1 h        0.926     0.032     2.562     2.503
    72   1 h        0.925     0.033     2.539     2.492
    73   1 h        0.926     0.035     2.511     2.478
    74   1 h        0.925     0.035     2.511     2.478
    75   1 h        0.926     0.033     2.541     2.493
    76   1 h        0.926     0.034     2.535     2.490
    77   1 h        0.925     0.034     2.534     2.489
    78   1 h        0.925     0.032     2.554     2.499
    79   1 h        0.925     0.033     2.541     2.493
    80   1 h        0.926     0.032     2.563     2.504
    81   1 h        0.926     0.032     2.554     2.499
    82   1 h        0.927     0.047     2.356     2.400
    83   1 h        0.924     0.053     2.279     2.361
    84   8 o        0.858    -0.435    22.392     6.344
    85   1 h        0.925     0.126     1.562     1.954

 Mol. C6AA /au·bohr⁶  :     123901.471783
 Mol. C8AA /au·bohr⁸  :    3274184.289358
 Mol. α(0) /au        :        571.257753


Wiberg/Mayer (AO) data.
largest (>0.10) Wiberg bond orders for each atom

 ---------------------------------------------------------------------------
     #   Z sym  total        # sym  WBO       # sym  WBO       # sym  WBO
 ---------------------------------------------------------------------------
     1   7 n    2.937 --     3 h    0.979     4 h    0.979     2 h    0.979
     2   1 h    0.980 --     1 n    0.979
     3   1 h    0.980 --     1 n    0.979
     4   1 h    0.980 --     1 n    0.979
     5   6 c    3.973 --    10 c    1.693    12 c    1.167    71 h    0.967
     6   6 c    3.907 --    12 c    1.445    14 c    1.273    72 h    0.966
     7   6 c    3.819 --    14 c    1.359    16 c    1.291    73 h    0.966
     8   6 c    3.820 --    16 c    1.367    18 c    1.302    74 h    0.966
     9   6 c    3.848 --    20 c    1.446    18 c    1.299    75 h    0.969
    10   6 c    3.974 --     5 c    1.693    11 c    1.165    67 h    0.967
    11   6 c    3.978 --    22 c    1.450    24 c    1.203    10 c    1.165
    12   6 c    3.977 --     6 c    1.445    13 c    1.201     5 c    1.167
    13   6 c    3.939 --    26 c    1.340    12 c    1.201    24 c    1.200
    14   6 c    3.978 --     7 c    1.359     6 c    1.273    15 c    1.186
    15   6 c    3.951 --    26 c    1.404    14 c    1.186    28 c    1.155
    16   6 c    3.984 --     8 c    1.367     7 c    1.291    17 c    1.166
    17   6 c    3.951 --    28 c    1.314    30 c    1.244    16 c    1.166
    18   6 c    3.984 --     8 c    1.302     9 c    1.299    19 c    1.222
    19   6 c    3.946 --    30 c    1.266    32 c    1.228    18 c    1.222
    20   6 c    3.984 --    21 c    1.447     9 c    1.446    81 h    0.970
    21   6 c    3.845 --    20 c    1.447    32 c    1.297    63 h    0.969
    22   6 c    3.915 --    11 c    1.450    23 c    1.279    68 h    0.966
    23   6 c    3.983 --    34 c    1.355    22 c    1.279    36 c    1.187
    24   6 c    3.945 --    25 c    1.329    11 c    1.203    13 c    1.200
    25   6 c    3.963 --    36 c    1.353    24 c    1.329    38 c    1.034
    26   6 c    3.953 --    15 c    1.404    13 c    1.340    82 h    0.947
    27   1 h    0.998 --    47 c    0.970
    28   6 c    3.971 --    17 c    1.314    29 c    1.269    15 c    1.155
    29   6 c    3.925 --    42 c    1.276    28 c    1.269    40 c    1.078
    30   6 c    3.985 --    19 c    1.266    31 c    1.255    17 c    1.244
    31   6 c    3.959 --    42 c    1.278    30 c    1.255    44 c    1.190
    32   6 c    3.985 --    21 c    1.297    33 c    1.297    19 c    1.228
    33   6 c    3.809 --    44 c    1.380    32 c    1.297    64 h    0.967
    34   6 c    3.855 --    23 c    1.355    35 c    1.334    69 h    0.966
    35   6 c    3.981 --    34 c    1.334    46 c    1.288    48 c    1.197
    36   6 c    3.958 --    25 c    1.353    37 c    1.205    23 c    1.187
    37   6 c    3.970 --    48 c    1.352    36 c    1.205    50 c    1.178
    38   6 c    3.986 --    25 c    1.034    39 c    1.026    83 h    0.917
                            85 h    0.873
    39   6 c    3.960 --    50 c    1.418    52 c    1.265    38 c    1.026
    40   6 c    3.916 --    84 o    1.641    29 c    1.078    41 c    1.058
    41   6 c    3.921 --    52 c    1.292    54 c    1.291    40 c    1.058
    42   6 c    3.976 --    31 c    1.278    29 c    1.276    43 c    1.198
    43   6 c    3.894 --    54 c    1.276    56 c    1.220    42 c    1.198
    44   6 c    3.985 --    33 c    1.380    45 c    1.255    31 c    1.190
    45   6 c    3.834 --    56 c    1.436    44 c    1.255    65 h    0.967
    46   6 c    3.847 --    47 c    1.459    35 c    1.288    70 h    0.969
    47   6 c    3.975 --    46 c    1.459    58 c    1.428    27 h    0.970
    48   6 c    3.971 --    37 c    1.352    35 c    1.197    49 c    1.189
    49   6 c    3.980 --    59 c    1.316    58 c    1.314    48 c    1.189
    50   6 c    3.965 --    39 c    1.418    37 c    1.178    51 c    1.160
    51   6 c    3.982 --    59 c    1.362    60 c    1.301    50 c    1.160
    52   6 c    3.955 --    41 c    1.292    39 c    1.265    53 c    1.175
    53   6 c    3.978 --    60 c    1.393    61 c    1.251    52 c    1.175
    54   6 c    3.953 --    41 c    1.291    43 c    1.276    55 c    1.169
    55   6 c    3.975 --    61 c    1.479    54 c    1.169    62 c    1.168
    56   6 c    3.979 --    45 c    1.436    43 c    1.220    57 c    1.163
    57   6 c    3.967 --    62 c    1.694    56 c    1.163    66 h    0.968
    58   6 c    3.840 --    47 c    1.428    49 c    1.314    76 h    0.969
    59   6 c    3.814 --    51 c    1.362    49 c    1.316    77 h    0.966
    60   6 c    3.858 --    53 c    1.393    51 c    1.301    78 h    0.966
    61   6 c    3.905 --    55 c    1.479    53 c    1.251    79 h    0.966
    62   6 c    3.973 --    57 c    1.694    55 c    1.168    80 h    0.967
    63   1 h    0.998 --    21 c    0.969
    64   1 h    0.998 --    33 c    0.967
    65   1 h    0.998 --    45 c    0.967
    66   1 h    0.997 --    57 c    0.968
    67   1 h    0.998 --    10 c    0.967
    68   1 h    0.998 --    22 c    0.966
    69   1 h    0.997 --    34 c    0.966
    70   1 h    0.998 --    46 c    0.969
    71   1 h    0.997 --     5 c    0.967
    72   1 h    0.997 --     6 c    0.966
    73   1 h    0.997 --     7 c    0.966
    74   1 h    0.997 --     8 c    0.966
    75   1 h    0.998 --     9 c    0.969
    76   1 h    0.998 --    58 c    0.969
    77   1 h    0.997 --    59 c    0.966
    78   1 h    0.997 --    60 c    0.966
    79   1 h    0.997 --    61 c    0.966
    80   1 h    0.997 --    62 c    0.967
    81   1 h    0.998 --    20 c    0.970
    82   1 h    0.997 --    26 c    0.947
    83   1 h    0.992 --    38 c    0.917
    84   8 o    1.961 --    40 c    1.641
    85   1 h    0.980 --    38 c    0.873
 ---------------------------------------------------------------------------

Topologies differ in total number of bonds
Writing topology from bond orders to xtbtopo.mol

molecular dipole:
                 x           y           z       tot (Debye)
 q only:        0.050      -0.435      -0.966
   full:        0.130      -0.636      -0.809       2.638
molecular quadrupole (traceless):
                xx          xy          yy          xz          yz          zz
 q only:       38.895      -8.273      23.626     -12.265     -21.616     -62.521
  q+dip:       53.157      -6.236      39.513     -14.303     -17.729     -92.670
   full:       41.934      -5.242      29.340     -13.524     -15.971     -71.274

           -------------------------------------------------
          |                Geometry Summary                 |
           -------------------------------------------------

      molecular mass/u    :      740.8245139
   center of mass at/Å    :        3.5885538       5.5741254       9.7886838
  moments of inertia/u·Å² :        0.7955383E+04   0.1627958E+05   0.2134528E+05
rotational constants/cm⁻¹ :        0.2119022E-02   0.1035508E-02   0.7897591E-03

 * 92 selected distances

     #   Z          #   Z                                           value/Å
     1   7 n        2   1 h                                       1.0125709 (min)
     1   7 n        3   1 h                                       1.0125720
     1   7 n        4   1 h                                       1.0125744
     5   6 c       10   6 c                                       1.3481672
     6   6 c       12   6 c                                       1.3868072
    12   6 c       13   6 c                                       1.4338886
     6   6 c       14   6 c                                       1.4135965
     7   6 c       14   6 c                                       1.3958630
    14   6 c       15   6 c                                       1.4256018
     7   6 c       16   6 c                                       1.4112600
     8   6 c       16   6 c                                       1.3940642
     8   6 c       18   6 c                                       1.4061631
     9   6 c       18   6 c                                       1.4061556
    18   6 c       19   6 c                                       1.4231168
     9   6 c       20   6 c                                       1.3823456
    20   6 c       21   6 c                                       1.3820685
    11   6 c       22   6 c                                       1.3830988
    22   6 c       23   6 c                                       1.4108056
    11   6 c       24   6 c                                       1.4312600
    24   6 c       25   6 c                                       1.4094020
    13   6 c       26   6 c                                       1.4025810
    15   6 c       26   6 c                                       1.3840516
    17   6 c       28   6 c                                       1.4010420
    28   6 c       29   6 c                                       1.4175522
    17   6 c       30   6 c                                       1.4164598
    19   6 c       30   6 c                                       1.4099532
    30   6 c       31   6 c                                       1.4152388
    19   6 c       32   6 c                                       1.4216525
    21   6 c       32   6 c                                       1.4065784
    32   6 c       33   6 c                                       1.4066107
    23   6 c       34   6 c                                       1.3946892
    34   6 c       35   6 c                                       1.4001390
    23   6 c       36   6 c                                       1.4283931
    25   6 c       36   6 c                                       1.3931307
    36   6 c       37   6 c                                       1.4311059
    25   6 c       38   6 c                                       1.4730494
    38   6 c       39   6 c                                       1.4747403 (max)
    29   6 c       42   6 c                                       1.4071519
    31   6 c       42   6 c                                       1.4078030
    42   6 c       43   6 c                                       1.4267134
    31   6 c       44   6 c                                       1.4284696
    33   6 c       44   6 c                                       1.3912698
    44   6 c       45   6 c                                       1.4150400
    35   6 c       46   6 c                                       1.4082951
    27   1 h       47   6 c                                       1.0805672
    46   6 c       47   6 c                                       1.3797151
    35   6 c       48   6 c                                       1.4303526
    37   6 c       48   6 c                                       1.3964819
    48   6 c       49   6 c                                       1.4326531
    37   6 c       50   6 c                                       1.4355453
    39   6 c       50   6 c                                       1.3779442
    50   6 c       51   6 c                                       1.4344806
    39   6 c       52   6 c                                       1.4162245
    41   6 c       52   6 c                                       1.4190852
    41   6 c       54   6 c                                       1.4099521
    43   6 c       54   6 c                                       1.4122803
    54   6 c       55   6 c                                       1.4347897
    43   6 c       56   6 c                                       1.4221496
    45   6 c       56   6 c                                       1.3828406
    47   6 c       58   6 c                                       1.3844489
    49   6 c       58   6 c                                       1.4036632
    49   6 c       59   6 c                                       1.4038938
    51   6 c       59   6 c                                       1.3935221
    51   6 c       60   6 c                                       1.4080319
    53   6 c       60   6 c                                       1.3928753
    53   6 c       61   6 c                                       1.4166010
    55   6 c       61   6 c                                       1.3767939
    55   6 c       62   6 c                                       1.4339830
    57   6 c       62   6 c                                       1.3486868
    21   6 c       63   1 h                                       1.0803454
    33   6 c       64   1 h                                       1.0810662
    45   6 c       65   1 h                                       1.0811669
    57   6 c       66   1 h                                       1.0810003
    10   6 c       67   1 h                                       1.0809911
    22   6 c       68   1 h                                       1.0814563
    34   6 c       69   1 h                                       1.0812076
    46   6 c       70   1 h                                       1.0803866
     5   6 c       71   1 h                                       1.0810305
     6   6 c       72   1 h                                       1.0816922
     7   6 c       73   1 h                                       1.0810257
     8   6 c       74   1 h                                       1.0813401
     9   6 c       75   1 h                                       1.0802770
    58   6 c       76   1 h                                       1.0804677
    59   6 c       77   1 h                                       1.0812628
    60   6 c       78   1 h                                       1.0814032
    61   6 c       79   1 h                                       1.0816178
    62   6 c       80   1 h                                       1.0811276
    20   6 c       81   1 h                                       1.0806170
    26   6 c       82   1 h                                       1.0690145
    38   6 c       83   1 h                                       1.0944998
    40   6 c       84   8 o                                       1.2331825
    38   6 c       85   1 h                                       1.0877835

 * 4 distinct bonds (by element types)

   Z      Z             #   av. dist./Å        max./Å        min./Å
   1 H    6 C          23     1.0813629     1.0944998     1.0690145
   6 C    6 C          65     1.4084980     1.4747403     1.3481672
   1 H    7 N           3     1.0125724     1.0125744     1.0125709
   6 C    8 O           1     1.2331825     1.2331825     1.2331825


optimized geometry written to: xtbopt.coord


           -------------------------------------------------
          | TOTAL ENERGY             -142.416894082954 Eh   |
          | GRADIENT NORM               0.000230979484 Eh/α |
          | HOMO-LUMO GAP               0.250637895017 eV   |
           -------------------------------------------------

------------------------------------------------------------------------
 * finished run on 2024/12/05 at 16:17:56.179     
------------------------------------------------------------------------
 total:
 * wall-time:     0 d,  0 h,  0 min,  1.272 sec
 *  cpu-time:     0 d,  0 h,  0 min,  4.003 sec
 * ratio c/w:     3.147 speedup
 SCF:
 * wall-time:     0 d,  0 h,  0 min,  0.802 sec
 *  cpu-time:     0 d,  0 h,  0 min,  2.074 sec
 * ratio c/w:     2.584 speedup
 ANC optimizer:
 * wall-time:     0 d,  0 h,  0 min,  0.448 sec
 *  cpu-time:     0 d,  0 h,  0 min,  1.784 sec
 * ratio c/w:     3.978 speedup

