      -----------------------------------------------------------      
     |                   =====================                   |     
     |                           x T B                           |     
     |                   =====================                   |     
     |                         S. Grimme                         |     
     |          Mulliken Center for Theoretical Chemistry        |     
     |                    University of Bonn                     |     
      -----------------------------------------------------------      

   * xtb version 6.7.1 (edcfbbe) compiled by 'conda@3ef47c1a292c' on 2024-11-25

   xtb is free software: you can redistribute it and/or modify it under
   the terms of the GNU Lesser General Public License as published by
   the Free Software Foundation, either version 3 of the License, or
   (at your option) any later version.
   
   xtb is distributed in the hope that it will be useful,
   but WITHOUT ANY WARRANTY; without even the implied warranty of
   MERCHANTABILITY or FITNESS FOR A PARTICULAR PURPOSE.  See the
   GNU Lesser General Public License for more details.
   
   Cite this work as:
   * C. Bannwarth, E. Caldeweyher, S. Ehlert, A. Hansen, P. Pracht,
     J. Seibert, S. Spicher, S. Grimme, WIREs Comput. Mol. Sci., 2020, 11,
     e01493. DOI: 10.1002/wcms.1493
   
   for GFN2-xTB:
   * C. Bannwarth, S. Ehlert and S. Grimme., J. Chem. Theory Comput., 2019,
     15, 1652-1671. DOI: 10.1021/acs.jctc.8b01176
   for GFN1-xTB:
   * S. Grimme, C. Bannwarth, P. Shushkov, J. Chem. Theory Comput., 2017,
     13, 1989-2009. DOI: 10.1021/acs.jctc.7b00118
   for GFN0-xTB:
   * P. Pracht, E. Caldeweyher, S. Ehlert, S. Grimme, ChemRxiv, 2019, preprint.
     DOI: 10.26434/chemrxiv.8326202.v1
   for GFN-FF:
   * S. Spicher and S. Grimme, Angew. Chem. Int. Ed., 2020, 59, 15665-15673.
     DOI: 10.1002/anie.202004239
   
   for ALPB and GBSA implicit solvation:
   * S. Ehlert, M. Stahn, S. Spicher, S. Grimme, J. Chem. Theory Comput.,
     2021, 17, 4250-4261. DOI: 10.1021/acs.jctc.1c00471
   
   for ddCOSMO and CPCM-X implicit solvation:
   * M. Stahn, S. Ehlert, S. Grimme, J. Phys. Chem. A,
     2023, XX, XXXX-XXXX. DOI: 10.1021/acs.jpca.3c04382
   
   for DFT-D4:
   * E. Caldeweyher, C. Bannwarth and S. Grimme, J. Chem. Phys., 2017,
     147, 034112. DOI: 10.1063/1.4993215
   * E. Caldeweyher, S. Ehlert, A. Hansen, H. Neugebauer, S. Spicher,
     C. Bannwarth and S. Grimme, J. Chem. Phys., 2019, 150, 154122.
     DOI: 10.1063/1.5090222
   * E. Caldeweyher, J.-M. Mewes, S. Ehlert and S. Grimme, Phys. Chem. Chem. Phys.
     2020, 22, 8499-8512. DOI: 10.1039/D0CP00502A
   
   for sTDA-xTB:
   * S. Grimme and C. Bannwarth, J. Chem. Phys., 2016, 145, 054103.
     DOI: 10.1063/1.4959605
   
   in the mass-spec context:
   * V. Asgeirsson, C. Bauer and S. Grimme, Chem. Sci., 2017, 8, 4879.
     DOI: 10.1039/c7sc00601b
   * J. Koopman and S. Grimme, ACS Omega 2019, 4, 12, 15120-15133.
     DOI: 10.1021/acsomega.9b02011
   
   for metadynamics refer to:
   * S. Grimme, J. Chem. Theory Comput., 2019, 155, 2847-2862
     DOI: 10.1021/acs.jctc.9b00143
   
   for SPH calculations refer to:
   * S. Spicher and S. Grimme, J. Chem. Theory Comput., 2021, 17, 1701-1714
     DOI: 10.1021/acs.jctc.0c01306
   
   for ONIOM refer to:
   * C. Plett, A. Katbashev, S. Ehlert, S. Grimme, M. Bursch,
     Phys. Chem. Chem. Phys., 2023, 25, 17860-17868. DOI: 10.1039/D3CP02178E
   
   for DIPRO refer to:
   * J. Kohn, N. Gildemeister, S. Grimme, D. Fazzi, A. Hansen,
     J. Chem. Phys., 2023, just accepted.
   
   for PTB refer to:
   * S. Grimme, M. Mueller, A. Hansen, J. Chem. Phys., 2023, 158, 124111.
     DOI: 10.1063/5.0137838
   
   with help from (in alphabetical order)
   P. Atkinson, C. Bannwarth, F. Bohle, G. Brandenburg, E. Caldeweyher
   M. Checinski, S. Dohm, S. Ehlert, S. Ehrlich, I. Gerasimov, C. Hölzer
   A. Katbashev, J. Kohn, J. Koopman, C. Lavigne, S. Lehtola, F. März, M. Müller,
   F. Musil, H. Neugebauer, J. Pisarek, C. Plett, P. Pracht, F. Pultar,
   J. Seibert, P. Shushkov, S. Spicher, M. Stahn, M. Steiner, T. Strunk,
   J. Stückrath, T. Rose, and J. Unsleber
   
 * started run on 2025/01/15 at 17:23:23.935     
   ID    Z sym.   atoms
    1    7 n      1
    2    1 h      2-4, 63-82
    3    6 c      5-62

           -------------------------------------------------
          |                Calculation Setup                |
           -------------------------------------------------

          program call               : xtb interaction --opt
          coordinate file            : interaction
          omp threads                :                    16


molecular fragmentation (1/2 indicates fragments):
111122222222222222222222222222222222222222222222222222222222222222222222
2222222222
# atoms in fragment 1/2:     4    78
 fragment masses (1/2) :       17.03      716.78
CMA distance (Bohr)    :  23.046
constraining FC (au)   :  0.0500

           -------------------------------------------------
          |                 G F N 2 - x T B                 |
           -------------------------------------------------

        Reference                      10.1021/acs.jctc.8b01176
      * Hamiltonian:
        H0-scaling (s, p, d)           1.850000    2.230000    2.230000
        zeta-weighting                 0.500000
      * Dispersion:
        s8                             2.700000
        a1                             0.520000
        a2                             5.000000
        s9                             5.000000
      * Repulsion:
        kExp                           1.500000    1.000000
        rExp                           1.000000
      * Coulomb:
        alpha                          2.000000
        third order                    shell-resolved
        anisotropic                    true
        a3                             3.000000
        a5                             4.000000
        cn-shift                       1.200000
        cn-exp                         4.000000
        max-rad                        5.000000


          ...................................................
          :                      SETUP                      :
          :.................................................:
          :  # basis functions                 259          :
          :  # atomic orbitals                 259          :
          :  # shells                          141          :
          :  # electrons                       260          :
          :  max. iterations                   250          :
          :  Hamiltonian                  GFN2-xTB          :
          :  restarted?                      false          :
          :  GBSA solvation                  false          :
          :  PC potential                    false          :
          :  electronic temp.          300.0000000     K    :
          :  accuracy                    1.0000000          :
          :  -> integral cutoff          0.2500000E+02      :
          :  -> integral neglect         0.1000000E-07      :
          :  -> SCF convergence          0.1000000E-05 Eh   :
          :  -> wf. convergence          0.1000000E-03 e    :
          :  Broyden damping             0.4000000          :
          :  net charge                          0          :
          :  unpaired electrons                  0          :
          ...................................................

 iter      E             dE          RMSdq      gap      omega  full diag
   1   -141.8186738 -0.141819E+03  0.476E+00    0.31       0.0  T
   2   -141.8601809 -0.415071E-01  0.281E+00    0.30       1.0  T
   3   -141.7935962  0.665847E-01  0.818E-01    0.33       1.0  T
   4   -141.6606880  0.132908E+00  0.117E+00    0.64       1.0  T
   5   -141.7319673 -0.712793E-01  0.921E-01    0.49       1.0  T
   6   -141.8408394 -0.108872E+00  0.433E-01    0.33       1.0  T
   7   -141.8684674 -0.276280E-01  0.815E-02    0.31       1.0  T
   8   -141.8689274 -0.459997E-03  0.333E-02    0.31       1.0  T
   9   -141.8689556 -0.281675E-04  0.230E-02    0.31       1.0  T
  10   -141.8689881 -0.324862E-04  0.112E-02    0.31       1.0  T
  11   -141.8689982 -0.100686E-04  0.342E-03    0.31       3.2  T
  12   -141.8689994 -0.128904E-05  0.171E-03    0.31       6.5  T
  13   -141.8689999 -0.413599E-06  0.524E-04    0.31      21.1  T
  14   -141.8689999 -0.245894E-07  0.221E-04    0.31      50.1  T

   *** convergence criteria satisfied after 14 iterations ***

         #    Occupation            Energy/Eh            Energy/eV
      -------------------------------------------------------------
         1        2.0000           -0.6610134             -17.9871
       ...           ...                  ...                  ...
       124        2.0000           -0.3884190             -10.5694
       125        2.0000           -0.3852338             -10.4827
       126        2.0000           -0.3850498             -10.4777
       127        2.0000           -0.3845567             -10.4643
       128        2.0000           -0.3677328             -10.0065
       129        2.0000           -0.3445561              -9.3758
       130        1.9949           -0.3298179              -8.9748 (HOMO)
       131        0.0051           -0.3184920              -8.6666 (LUMO)
       132                         -0.3024067              -8.2289
       133                         -0.2753849              -7.4936
       134                         -0.2530897              -6.8869
       135                         -0.2519041              -6.8547
       ...                                ...                  ...
       259                          0.7777137              21.1627
      -------------------------------------------------------------
                  HL-Gap            0.0113258 Eh            0.3082 eV
             Fermi-level           -0.3241550 Eh           -8.8207 eV

 SCC (total)                   0 d,  0 h,  0 min,  0.592 sec
 SCC setup                      ...        0 min,  0.001 sec (  0.101%)
 Dispersion                     ...        0 min,  0.005 sec (  0.853%)
 classical contributions        ...        0 min,  0.000 sec (  0.044%)
 integral evaluation            ...        0 min,  0.011 sec (  1.837%)
 iterations                     ...        0 min,  0.531 sec ( 89.725%)
 molecular gradient             ...        0 min,  0.036 sec (  6.142%)
 printout                       ...        0 min,  0.008 sec (  1.291%)

         :::::::::::::::::::::::::::::::::::::::::::::::::::::
         ::                     SUMMARY                     ::
         :::::::::::::::::::::::::::::::::::::::::::::::::::::
         :: total energy            -139.144304117849 Eh    ::
         :: gradient norm              0.000748843454 Eh/a0 ::
         :: HOMO-LUMO gap              0.308191751583 eV    ::
         ::.................................................::
         :: SCC energy              -141.871458543352 Eh    ::
         :: -> isotropic ES            0.016485118596 Eh    ::
         :: -> anisotropic ES          0.009570647771 Eh    ::
         :: -> anisotropic XC          0.062752894070 Eh    ::
         :: -> dispersion             -0.148943156285 Eh    ::
         :: repulsion energy           2.727154425503 Eh    ::
         :: add. restraining           0.000000000000 Eh    ::
         :: total charge               0.000000000715 e     ::
         :::::::::::::::::::::::::::::::::::::::::::::::::::::

      ----------------------------------------------------------- 
     |                   =====================                   |
     |                        A N C O P T                        |
     |                   =====================                   |
     |               Approximate Normal Coordinate               |
     |                Rational Function Optimizer                |
      ----------------------------------------------------------- 
      ----------------------------------------------------------- 
     |                   =====================                   |
     |                        A N C O P T                        |
     |                   =====================                   |
     |               Approximate Normal Coordinate               |
     |                Rational Function Optimizer                |
      ----------------------------------------------------------- 

          ...................................................
          :                      SETUP                      :
          :.................................................:
          :   optimization level            normal          :
          :   max. optcycles                   246          :
          :   ANC micro-cycles                  20          :
          :   degrees of freedom               240          :
          :.................................................:
          :   RF solver                   davidson          :
          :   write xtbopt.log                true          :
          :   linear?                        false          :
          :   energy convergence         0.5000000E-05 Eh   :
          :   grad. convergence          0.1000000E-02 Eh/α :
          :   maxmium RF displ.          1.0000000          :
          :   Hlow (freq-cutoff)         0.1000000E-01      :
          :   Hmax (freq-cutoff)         5.0000000          :
          :   S6 in model hess.         20.0000000          :
          ...................................................

generating ANC from exact Hessian ...
Using Lindh-Hessian (1995)
 Shifting diagonal of input Hessian by    9.9798636770551067E-003
 Lowest  eigenvalues of input Hessian
    0.000000    0.000000    0.000000    0.000000    0.000000    0.000000
    0.010000    0.010016    0.010052    0.010238    0.010692    0.011060
    0.011060    0.011140    0.011183    0.011427    0.011956    0.013691
 Highest eigenvalues
    2.115450    2.128058    2.173743    2.187396    2.187411    2.238014


........................................................................
.............................. CYCLE    1 ..............................
........................................................................

 iter      E             dE          RMSdq      gap      omega  full diag
   1   -141.8689999 -0.141869E+03  0.139E-04    0.31       0.0  T
   2   -141.8689996  0.248801E-06  0.122E-03    0.31       9.0  T
   3   -141.8689999 -0.251105E-06  0.624E-05    0.31     176.9  T
   4   -141.8689999 -0.222713E-09  0.467E-05    0.31     236.6  T
     SCC iter.                  ...        0 min,  0.158 sec
     gradient                   ...        0 min,  0.037 sec
 * total energy  :  -139.1443041 Eh     change       -0.4652605E-08 Eh
   gradient norm :     0.0007488 Eh/α   predicted     0.0000000E+00 (-100.00%)
   displ. norm   :     0.0092013 α      lambda       -0.1387985E-05
   maximum displ.:     0.0060391 α      in ANC's #7, #29, #25, ...

   *** GEOMETRY OPTIMIZATION CONVERGED AFTER 1 ITERATIONS ***

------------------------------------------------------------------------
 total energy gain   :        -0.0000000 Eh       -0.0000 kcal/mol
 total RMSD          :         0.0000000 a0        0.0000 Å
 total power (kW/mol):        -0.0000122 (step)   -0.0000 (real)
------------------------------------------------------------------------

 ANCopt (total)                0 d,  0 h,  0 min,  0.252 sec
 optimizer setup                ...        0 min,  0.000 sec (  0.062%)
 model hessian                  ...        0 min,  0.018 sec (  7.239%)
 ANC generation                 ...        0 min,  0.017 sec (  6.617%)
 coordinate transformation      ...        0 min,  0.000 sec (  0.034%)
 single point calculation       ...        0 min,  0.216 sec ( 85.773%)
 optimization log               ...        0 min,  0.000 sec (  0.147%)
 hessian update                 ...        0 min,  0.000 sec (  0.001%)
 rational function              ...        0 min,  0.000 sec (  0.071%)

================
 final structure:
================
$coord
       -2.60937162791365        1.68714748439428       -0.01163192570348      n
       -4.01041457698390        0.43855252127951       -0.38512996372594      h
       -2.35261453931077        1.72137042451791        1.88423836032661      h
       -1.00348803607247        1.01126236935069       -0.80267817912615      h
        2.30726111231092        1.37046907009398       18.89724235267465      c
        0.02743579977311        5.41990460183287       18.89726124993590      c
       -2.25353619857736        9.45870286521416       18.89726124993590      c
       -4.52882314485339       13.49844599165796       18.89726124993590      c
       -6.80397781030067       17.55034005708547       18.89724235267465      c
        4.50374647917472        0.08072305293613       18.89726124993590      c
        6.89727358909160        1.35242974450479       18.89726124993590      c
        2.25143860257861        4.07988090933866       18.89726124993590      c
        4.61775365629559        5.39603736087420       18.89724235267465      c
       -0.01565116530147        8.09747644559753       18.89726124993590      c
        2.34189979218206        9.42283586336178       18.89724235267465      c
       -2.28396078918975       12.12087344106013       18.89726124993590      c
        0.06972352408038       13.44850053017438       18.89724235267465      c
       -4.54344962506084       16.14818216960147       18.89726124993590      c
       -2.20285374390503       17.47454314221197       18.89726124993590      c
       -6.75919130113832       20.15846446575662       18.89720455815215      c
       -4.49365534166726       21.46161960155220       18.89726124993590      c
        9.15158457538021        0.06302765750169       18.89726124993590      c
       11.51018954650721        1.33069222488899       18.89726124993590      c
        6.89521378761536        4.05867818221623       18.89724235267465      c
        9.23473252487992        5.37307718845552       18.89724235267465      c
        4.62688103347930        8.07708630070885       18.89724235267465      c
        6.96377305143013        9.39785368398937       18.89724235267465      c
        2.35677193678576       12.09789437138021       18.89724235267465      c
        4.69256791358408       13.41949323415573       18.89724235267465      c
        0.09058855714427       16.12301101761656       18.89726124993590      c
        2.42242102236803       17.44067925005209       18.89726124993590      c
       -2.17851407141511       20.16186597278161       18.89726124993590      c
        0.15474381422474       21.43440754535229       18.89726124993590      c
       13.79142913007697        0.03716051938494       18.89726124993590      c
       16.12469287386780        1.30971815462768       18.89726124993590      c
       11.52375778008466        4.03086141365633       18.89724235267465      c
       13.85558533202050        5.34852964609186       18.89726124993590      c
        9.25361088886861        8.05204742955268       18.89724235267465      c
       11.58940686566694        9.37364629232820       18.89724235267465      c
        6.98240575102256       12.07370587698029       18.89724235267465      c
        9.31929776897339       13.39445436299956       18.89724235267465      c
        4.71144627757277       16.09846347525289       18.89724235267465      c
        7.05096501483733       17.41286248149218       18.89726124993590      c
        2.43598925594549       20.14089001279418       18.89726124993590      c
        4.79459422707249       21.40851829743988       18.89726124993590      c
       18.43983414411995        0.01000148890010       18.89726124993590      c
       20.70535120632976        1.31307997740405       18.89724235267465      c
       16.14903254635772        3.99699752149644       18.89726124993590      c
       18.48962842751353        5.32337739136819       18.89726124993590      c
       13.87644790844043        8.02304013353404       18.89726124993590      c
       16.23013959164244        9.35068611990953       18.89726124993590      c
       11.60427901027064       12.04870480034663       18.89724235267465      c
       13.96182573476764       13.37408311537213       18.89726124993590      c
        9.32842514615711       16.07550330283422       18.89724235267465      c
       11.69474019987408       17.39165975436975       18.89726124993590      c
        7.04890521336109       20.11915816235675       18.89726124993590      c
        9.44243232327797       21.39075487186494       18.89726124993590      c
       20.75013771549211        3.92120060662295       18.89726124993590      c
       18.47500194730608        7.97309467205045       18.89726124993590      c
       16.19971500103005       12.01283779849425       18.89726124993590      c
       13.91873997911778       16.05165495913680       18.89726124993590      c
       11.63891769014177       20.10101679155682       18.89724235267465      c
       -4.47976585464855       23.50290176177027       18.89724235267465      h
        0.16137240655338       23.47739045908286       18.89726124993590      h
        4.79740991899873       23.45206812900794       18.89726124993590      h
        9.42927982944802       23.43354881298301       18.89726124993590      h
        4.51689897300468       -1.96204594379709       18.89726124993590      h
        9.14876888345396       -1.98050856803828       18.89726124993590      h
       13.78481508863949       -2.00592538441945       18.89726124993590      h
       18.42594465710125       -2.03132330353936       18.89726124993590      h
        0.51703095752437        0.38603703226594       18.89726124993590      h
       -1.75622453316729        4.42201582426875       18.89726124993590      h
       -4.03600146871631        8.45954797114630       18.89726124993590      h
       -6.31211989448734       12.50099185110259       18.89726124993590      h
       -8.58372187481963       16.55035368352261       18.89726124993590      h
       22.52988178001107        4.92120587744706       18.89726124993590      h
       20.25824200515628        8.97056770986707       18.89726124993590      h
       17.98218027116900       13.01199269256211       18.89726124993590      h
       15.70239577671549       17.04952483943967       18.89726124993590      h
       13.42914973465444       21.08556410267847       18.89726124993590      h
       -8.51846963172360       21.19630205360310       18.89726124993590      h
       22.46468622869880        0.27526128681882       18.89726124993590      h
$end

 Bond Distances (Angstroems)
 ---------------------------
N1-H2=1.0126         N1-H3=1.0126         N1-H4=1.0126         H2-N1=1.0126         H3-N1=1.0126         H4-N1=1.0126         
C5-C10=1.3479        C5-C12=1.4341        C5-H71=1.0811        C6-C12=1.3740        C6-C14=1.4171        C6-H72=1.0815        
C7-C14=1.3861        C7-C16=1.4089        C7-H73=1.0813        C8-C16=1.3938        C8-C18=1.4022        C8-H74=1.0813        
C9-C18=1.4077        C9-C20=1.3804        C9-H75=1.0803        C10-C5=1.3479        C10-C11=1.4343       C10-H67=1.0810       
C11-C10=1.4343       C11-C22=1.3743       C11-C24=1.4321       C12-C5=1.4341        C12-C6=1.3740        C12-C13=1.4329       
C13-C12=1.4329       C13-C24=1.3976       C13-C26=1.4188       C14-C6=1.4171        C14-C7=1.3861        C14-C15=1.4312       
C15-C14=1.4312       C15-C26=1.4033       C15-C28=1.4156       C16-C7=1.4089        C16-C8=1.3938        C16-C17=1.4300       
C17-C16=1.4300       C17-C28=1.4055       C17-C30=1.4153       C18-C8=1.4022        C18-C9=1.4077        C18-C19=1.4236       
C19-C18=1.4236       C19-C30=1.4087       C19-C32=1.4221       C20-C9=1.3804        C20-C21=1.3831       C20-H81=1.0809       
C21-C20=1.3831       C21-C32=1.4050       C21-H63=1.0802       C22-C11=1.3743       C22-C23=1.4170       C22-H68=1.0814       
C23-C22=1.4170       C23-C34=1.3877       C23-C36=1.4289       C24-C11=1.4321       C24-C13=1.3976       C24-C25=1.4200       
C25-C24=1.4200       C25-C36=1.4042       C25-C38=1.4177       C26-C13=1.4188       C26-C15=1.4033       C26-C27=1.4205       
C27-C26=1.4205       C27-C38=1.4055       C27-C40=1.4160       C28-C15=1.4156       C28-C17=1.4055       C28-C29=1.4202       
C29-C28=1.4202       C29-C40=1.4055       C29-C42=1.4177       C30-C17=1.4153       C30-C19=1.4087       C30-C31=1.4173       
C31-C30=1.4173       C31-C42=1.4042       C31-C44=1.4289       C32-C19=1.4221       C32-C21=1.4050       C32-C33=1.4064       
C33-C32=1.4064       C33-C44=1.3877       C33-H64=1.0811       C34-C23=1.3877       C34-C35=1.4064       C34-H69=1.0812       
C35-C34=1.4064       C35-C46=1.4050       C35-C48=1.4221       C36-C23=1.4289       C36-C25=1.4042       C36-C37=1.4173       
C37-C36=1.4173       C37-C48=1.4087       C37-C50=1.4153       C38-C25=1.4177       C38-C27=1.4055       C38-C39=1.4202       
C39-C38=1.4202       C39-C50=1.4055       C39-C52=1.4156       C40-C27=1.4160       C40-C29=1.4055       C40-C41=1.4205       
C41-C40=1.4205       C41-C52=1.4033       C41-C54=1.4188       C42-C29=1.4177       C42-C31=1.4042       C42-C43=1.4200       
C43-C42=1.4200       C43-C54=1.3976       C43-C56=1.4321       C44-C31=1.4289       C44-C33=1.3877       C44-C45=1.4170       
C45-C44=1.4170       C45-C56=1.3743       C45-H65=1.0814       C46-C35=1.4050       C46-C47=1.3830       C46-H70=1.0802       
C47-C46=1.3830       C47-C58=1.3804       C47-H82=1.0809       C48-C35=1.4221       C48-C37=1.4087       C48-C49=1.4236       
C49-C48=1.4236       C49-C58=1.4077       C49-C59=1.4022       C50-C37=1.4153       C50-C39=1.4055       C50-C51=1.4300       
C51-C50=1.4300       C51-C59=1.3938       C51-C60=1.4088       C52-C39=1.4156       C52-C41=1.4033       C52-C53=1.4312       
C53-C52=1.4312       C53-C60=1.3861       C53-C61=1.4171       C54-C41=1.4188       C54-C43=1.3976       C54-C55=1.4329       
C55-C54=1.4329       C55-C61=1.3740       C55-C62=1.4340       C56-C43=1.4321       C56-C45=1.3743       C56-C57=1.4342       
C57-C56=1.4342       C57-C62=1.3479       C57-H66=1.0810       C58-C47=1.3804       C58-C49=1.4077       C58-H76=1.0803       
C59-C49=1.4022       C59-C51=1.3938       C59-H77=1.0812       C60-C51=1.4088       C60-C53=1.3861       C60-H78=1.0813       
C61-C53=1.4171       C61-C55=1.3740       C61-H79=1.0815       C62-C55=1.4340       C62-C57=1.3479       C62-H80=1.0812       
H63-C21=1.0802       H64-C33=1.0811       H65-C45=1.0814       H66-C57=1.0810       H67-C10=1.0810       H68-C22=1.0814       
H69-C34=1.0812       H70-C46=1.0802       H71-C5=1.0811        H72-C6=1.0815        H73-C7=1.0813        H74-C8=1.0813        
H75-C9=1.0803        H76-C58=1.0803       H77-C59=1.0812       H78-C60=1.0813       H79-C61=1.0815       H80-C62=1.0812       
H81-C20=1.0809       H82-C47=1.0809       
 C  H  Rav=1.0810 sigma=0.0004  Rmin=1.0802  Rmax=1.0815    20
 C  C  Rav=1.4088 sigma=0.0191  Rmin=1.3479  Rmax=1.4343    77
 N  H  Rav=1.0126 sigma=0.0000  Rmin=1.0126  Rmax=1.0126     3

 selected bond angles (degree)
 --------------------
H3-N1-H2=107.66                H4-N1-H2=107.66                H4-N1-H3=107.66                C12-C5-C10=121.60              
H71-C5-C10=120.77              H71-C5-C12=117.63              C14-C6-C12=121.99              H72-C6-C12=119.70              
H72-C6-C14=118.30              C16-C7-C14=121.97              H73-C7-C14=119.42              H73-C7-C16=118.62              
C18-C8-C16=121.85              H74-C8-C16=119.24              H74-C8-C18=118.90              C20-C9-C18=120.83              
H75-C9-C18=118.86              H75-C9-C20=120.31              C11-C10-C5=121.60              H67-C10-C5=120.79              
H67-C10-C11=117.61             

 selected dihedral angles (degree)
 ---------------------------------
C11-C10-C5-C12=  0.00         C11-C10-C5-H71=180.00         H67-C10-C5-C12=180.00         H67-C10-C5-H71=  0.00         

 CMA Distance (Angstroems)
 ---------------------------
R(CMA): 12.1955
           -------------------------------------------------
          |                Final Singlepoint                |
           -------------------------------------------------

          ...................................................
          :                      SETUP                      :
          :.................................................:
          :  # basis functions                 259          :
          :  # atomic orbitals                 259          :
          :  # shells                          141          :
          :  # electrons                       260          :
          :  max. iterations                   250          :
          :  Hamiltonian                  GFN2-xTB          :
          :  restarted?                      false          :
          :  GBSA solvation                  false          :
          :  PC potential                    false          :
          :  electronic temp.          300.0000000     K    :
          :  accuracy                    1.0000000          :
          :  -> integral cutoff          0.2500000E+02      :
          :  -> integral neglect         0.1000000E-07      :
          :  -> SCF convergence          0.1000000E-05 Eh   :
          :  -> wf. convergence          0.1000000E-03 e    :
          :  Broyden damping             0.4000000          :
          :  net charge                          0          :
          :  unpaired electrons                  0          :
          ...................................................

 iter      E             dE          RMSdq      gap      omega  full diag
   1   -141.8689999 -0.141869E+03  0.264E-05    0.31       0.0  T
   2   -141.8689999  0.209698E-08  0.115E-04    0.31      95.8  T
   3   -141.8689999 -0.150652E-08  0.650E-05    0.31     169.9  T

   *** convergence criteria satisfied after 3 iterations ***

         #    Occupation            Energy/Eh            Energy/eV
      -------------------------------------------------------------
         1        2.0000           -0.6610126             -17.9871
       ...           ...                  ...                  ...
       124        2.0000           -0.3884184             -10.5694
       125        2.0000           -0.3852341             -10.4828
       126        2.0000           -0.3850494             -10.4777
       127        2.0000           -0.3845561             -10.4643
       128        2.0000           -0.3677325             -10.0065
       129        2.0000           -0.3445558              -9.3758
       130        1.9949           -0.3298178              -8.9748 (HOMO)
       131        0.0051           -0.3184919              -8.6666 (LUMO)
       132                         -0.3024064              -8.2289
       133                         -0.2753845              -7.4936
       134                         -0.2530890              -6.8869
       135                         -0.2519038              -6.8547
       ...                                ...                  ...
       259                          0.7777143              21.1627
      -------------------------------------------------------------
                  HL-Gap            0.0113258 Eh            0.3082 eV
             Fermi-level           -0.3241548 Eh           -8.8207 eV

 SCC (total)                   0 d,  0 h,  0 min,  0.169 sec
 SCC setup                      ...        0 min,  0.000 sec (  0.286%)
 Dispersion                     ...        0 min,  0.002 sec (  1.141%)
 classical contributions        ...        0 min,  0.000 sec (  0.100%)
 integral evaluation            ...        0 min,  0.007 sec (  4.276%)
 iterations                     ...        0 min,  0.115 sec ( 67.623%)
 molecular gradient             ...        0 min,  0.038 sec ( 22.222%)
 printout                       ...        0 min,  0.007 sec (  4.334%)

         :::::::::::::::::::::::::::::::::::::::::::::::::::::
         ::                     SUMMARY                     ::
         :::::::::::::::::::::::::::::::::::::::::::::::::::::
         :: total energy            -139.144304122006 Eh    ::
         :: gradient norm              0.000748746197 Eh/a0 ::
         :: HOMO-LUMO gap              0.308192036699 eV    ::
         ::.................................................::
         :: SCC energy              -141.871458547509 Eh    ::
         :: -> isotropic ES            0.016485492943 Eh    ::
         :: -> anisotropic ES          0.009570572561 Eh    ::
         :: -> anisotropic XC          0.062752811995 Eh    ::
         :: -> dispersion             -0.148943129244 Eh    ::
         :: repulsion energy           2.727154425503 Eh    ::
         :: add. restraining           0.000000000000 Eh    ::
         :: total charge               0.000000000716 e     ::
         :::::::::::::::::::::::::::::::::::::::::::::::::::::


Property printout bound to 'properties.out'

optimized geometry written to: xtbopt.coord


           -------------------------------------------------
          | TOTAL ENERGY             -139.144304122006 Eh   |
          | GRADIENT NORM               0.000748746197 Eh/α |
          | HOMO-LUMO GAP               0.308192036699 eV   |
           -------------------------------------------------

------------------------------------------------------------------------
 * finished run on 2025/01/15 at 17:23:24.985     
------------------------------------------------------------------------
 total:
 * wall-time:     0 d,  0 h,  0 min,  1.050 sec
 *  cpu-time:     0 d,  0 h,  0 min,  3.522 sec
 * ratio c/w:     3.353 speedup
 SCF:
 * wall-time:     0 d,  0 h,  0 min,  0.594 sec
 *  cpu-time:     0 d,  0 h,  0 min,  1.655 sec
 * ratio c/w:     2.787 speedup
 ANC optimizer:
 * wall-time:     0 d,  0 h,  0 min,  0.425 sec
 *  cpu-time:     0 d,  0 h,  0 min,  1.708 sec
 * ratio c/w:     4.019 speedup

