      -----------------------------------------------------------      
     |                   =====================                   |     
     |                           x T B                           |     
     |                   =====================                   |     
     |                         S. Grimme                         |     
     |          Mulliken Center for Theoretical Chemistry        |     
     |                    University of Bonn                     |     
      -----------------------------------------------------------      

   * xtb version 6.5.1 (fef0646) compiled by 'conda@b96dff2e9fd6' on 2023-01-04

   xtb is free software: you can redistribute it and/or modify it under
   the terms of the GNU Lesser General Public License as published by
   the Free Software Foundation, either version 3 of the License, or
   (at your option) any later version.
   
   xtb is distributed in the hope that it will be useful,
   but WITHOUT ANY WARRANTY; without even the implied warranty of
   MERCHANTABILITY or FITNESS FOR A PARTICULAR PURPOSE.  See the
   GNU Lesser General Public License for more details.
   
   Cite this work as:
   * C. Bannwarth, E. Caldeweyher, S. Ehlert, A. Hansen, P. Pracht,
     J. Seibert, S. Spicher, S. Grimme, WIREs Comput. Mol. Sci., 2020, 11,
     e01493. DOI: 10.1002/wcms.1493
   
   for GFN2-xTB:
   * C. Bannwarth, S. Ehlert and S. Grimme., J. Chem. Theory Comput., 2019,
     15, 1652-1671. DOI: 10.1021/acs.jctc.8b01176
   for GFN1-xTB:
   * S. Grimme, C. Bannwarth, P. Shushkov, J. Chem. Theory Comput., 2017,
     13, 1989-2009. DOI: 10.1021/acs.jctc.7b00118
   for GFN0-xTB:
   * P. Pracht, E. Caldeweyher, S. Ehlert, S. Grimme, ChemRxiv, 2019, preprint.
     DOI: 10.26434/chemrxiv.8326202.v1
   for GFN-FF:
   * S. Spicher and S. Grimme, Angew. Chem. Int. Ed., 2020, 59, 15665-15673.
     DOI: 10.1002/anie.202004239
   
   for ALPB and GBSA implicit solvation:
   * S. Ehlert, M. Stahn, S. Spicher, S. Grimme, J. Chem. Theory Comput.,
     2021, 17, 4250-4261. DOI: 10.1021/acs.jctc.1c00471
   
   for DFT-D4:
   * E. Caldeweyher, C. Bannwarth and S. Grimme, J. Chem. Phys., 2017,
     147, 034112. DOI: 10.1063/1.4993215
   * E. Caldeweyher, S. Ehlert, A. Hansen, H. Neugebauer, S. Spicher,
     C. Bannwarth and S. Grimme, J. Chem. Phys., 2019, 150, 154122.
     DOI: 10.1063/1.5090222
   * E. Caldeweyher, J.-M. Mewes, S. Ehlert and S. Grimme, Phys. Chem. Chem. Phys.
     2020, 22, 8499-8512. DOI: 10.1039/D0CP00502A
   
   for sTDA-xTB:
   * S. Grimme and C. Bannwarth, J. Chem. Phys., 2016, 145, 054103.
     DOI: 10.1063/1.4959605
   
   in the mass-spec context:
   * V. Asgeirsson, C. Bauer and S. Grimme, Chem. Sci., 2017, 8, 4879.
     DOI: 10.1039/c7sc00601b
   * J. Koopman and S. Grimme, ACS Omega 2019, 4, 12, 15120-15133.
     DOI: 10.1021/acsomega.9b02011
   
   for metadynamics refer to:
   * S. Grimme, J. Chem. Theory Comput., 2019, 155, 2847-2862
     DOI: 10.1021/acs.jctc.9b00143
   
   for SPH calculations refer to:
   * S. Spicher and S. Grimme, J. Chem. Theory Comput., 2021, 17, 1701-1714
     DOI: 10.1021/acs.jctc.0c01306
   
   with help from (in alphabetical order)
   P. Atkinson, C. Bannwarth, F. Bohle, G. Brandenburg, E. Caldeweyher
   M. Checinski, S. Dohm, S. Ehlert, S. Ehrlich, I. Gerasimov, C. Hölzer
   A. Katbashev, J. Koopman, C. Lavigne, S. Lehtola, F. März, M. Müller,
   F. Musil, H. Neugebauer, J. Pisarek, C. Plett, P. Pracht, F. Pultar,
   J. Seibert, P. Shushkov, S. Spicher, M. Stahn, M. Steiner, T. Strunk,
   J. Stückrath, T. Rose, and J. Unsleber
   
 * started run on 2024/11/21 at 16:53:47.834     

           -------------------------------------------------
          |                Calculation Setup                |
           -------------------------------------------------

          program call               : xtb interaction
          coordinate file            : interaction
          omp threads                :                    24

   ID    Z sym.   atoms
    1    7 n      1
    2    1 h      2-4, 63-82
    3    6 c      5-62

molecular fragmentation (1/2 indicates fragments):
111122222222222222222222222222222222222222222222222222222222222222222222
2222222222
# atoms in fragment 1/2:     4    78
 fragment masses (1/2) :       17.03      716.78
CMA distance (Bohr)    :  23.046
constraining FC (au)   :  0.0500

           -------------------------------------------------
          |                 G F N 2 - x T B                 |
           -------------------------------------------------

        Reference                      10.1021/acs.jctc.8b01176
      * Hamiltonian:
        H0-scaling (s, p, d)           1.850000    2.230000    2.230000
        zeta-weighting                 0.500000
      * Dispersion:
        s8                             2.700000
        a1                             0.520000
        a2                             5.000000
        s9                             5.000000
      * Repulsion:
        kExp                           1.500000    1.000000
        rExp                           1.000000
      * Coulomb:
        alpha                          2.000000
        third order                    shell-resolved
        anisotropic                    true
        a3                             3.000000
        a5                             4.000000
        cn-shift                       1.200000
        cn-exp                         4.000000
        max-rad                        5.000000


          ...................................................
          :                      SETUP                      :
          :.................................................:
          :  # basis functions                 259          :
          :  # atomic orbitals                 259          :
          :  # shells                          141          :
          :  # electrons                       260          :
          :  max. iterations                   250          :
          :  Hamiltonian                  GFN2-xTB          :
          :  restarted?                      false          :
          :  GBSA solvation                  false          :
          :  PC potential                    false          :
          :  electronic temp.          300.0000000     K    :
          :  accuracy                    1.0000000          :
          :  -> integral cutoff          0.2500000E+02      :
          :  -> integral neglect         0.1000000E-07      :
          :  -> SCF convergence          0.1000000E-05 Eh   :
          :  -> wf. convergence          0.1000000E-03 e    :
          :  Broyden damping             0.4000000          :
          ...................................................

 iter      E             dE          RMSdq      gap      omega  full diag
   1   -141.8186738 -0.141819E+03  0.476E+00    0.31       0.0  T
   2   -141.8601809 -0.415071E-01  0.281E+00    0.30       1.0  T
   3   -141.7935962  0.665847E-01  0.818E-01    0.33       1.0  T
   4   -141.6606880  0.132908E+00  0.117E+00    0.64       1.0  T
   5   -141.7319673 -0.712793E-01  0.921E-01    0.49       1.0  T
   6   -141.8408394 -0.108872E+00  0.433E-01    0.33       1.0  T
   7   -141.8684674 -0.276280E-01  0.815E-02    0.31       1.0  T
   8   -141.8689274 -0.459997E-03  0.333E-02    0.31       1.0  T
   9   -141.8689556 -0.281675E-04  0.230E-02    0.31       1.0  T
  10   -141.8689881 -0.324862E-04  0.112E-02    0.31       1.0  T
  11   -141.8689982 -0.100686E-04  0.342E-03    0.31       3.2  T
  12   -141.8689994 -0.128904E-05  0.171E-03    0.31       6.5  T
  13   -141.8689999 -0.413599E-06  0.524E-04    0.31      21.1  T
  14   -141.8689999 -0.245892E-07  0.221E-04    0.31      50.1  T

   *** convergence criteria satisfied after 14 iterations ***

         #    Occupation            Energy/Eh            Energy/eV
      -------------------------------------------------------------
         1        2.0000           -0.6610134             -17.9871
       ...           ...                  ...                  ...
       124        2.0000           -0.3884190             -10.5694
       125        2.0000           -0.3852338             -10.4827
       126        2.0000           -0.3850498             -10.4777
       127        2.0000           -0.3845567             -10.4643
       128        2.0000           -0.3677328             -10.0065
       129        2.0000           -0.3445561              -9.3758
       130        1.9949           -0.3298179              -8.9748 (HOMO)
       131        0.0051           -0.3184920              -8.6666 (LUMO)
       132                         -0.3024067              -8.2289
       133                         -0.2753849              -7.4936
       134                         -0.2530897              -6.8869
       135                         -0.2519041              -6.8547
       ...                                ...                  ...
       259                          0.7777137              21.1627
      -------------------------------------------------------------
                  HL-Gap            0.0113258 Eh            0.3082 eV
             Fermi-level           -0.3241550 Eh           -8.8207 eV

 SCC (total)                   0 d,  0 h,  0 min,  0.506 sec
 SCC setup                      ...        0 min,  0.007 sec (  1.299%)
 Dispersion                     ...        0 min,  0.004 sec (  0.855%)
 classical contributions        ...        0 min,  0.007 sec (  1.325%)
 integral evaluation            ...        0 min,  0.016 sec (  3.248%)
 iterations                     ...        0 min,  0.427 sec ( 84.425%)
 molecular gradient             ...        0 min,  0.042 sec (  8.240%)
 printout                       ...        0 min,  0.003 sec (  0.590%)

         :::::::::::::::::::::::::::::::::::::::::::::::::::::
         ::                     SUMMARY                     ::
         :::::::::::::::::::::::::::::::::::::::::::::::::::::
         :: total energy            -139.144304117849 Eh    ::
         :: gradient norm              0.000748843454 Eh/a0 ::
         :: HOMO-LUMO gap              0.308191751583 eV    ::
         ::.................................................::
         :: SCC energy              -141.868999877370 Eh    ::
         :: -> isotropic ES            0.016485118596 Eh    ::
         :: -> anisotropic ES          0.009570647771 Eh    ::
         :: -> anisotropic XC          0.062752894070 Eh    ::
         :: -> dispersion             -0.148943156285 Eh    ::
         :: repulsion energy           2.727154425503 Eh    ::
         :: add. restraining           0.000000000000 Eh    ::
         :: total charge               0.000000000715 e     ::
         :::::::::::::::::::::::::::::::::::::::::::::::::::::

           -------------------------------------------------
          |                Property Printout                |
           -------------------------------------------------

    * Orbital Energies and Occupations

         #    Occupation            Energy/Eh            Energy/eV
      -------------------------------------------------------------
         1        2.0000           -0.6610134             -17.9871
       ...           ...                  ...                  ...
       118        2.0000           -0.4060767             -11.0499
       119        2.0000           -0.4019496             -10.9376
       120        2.0000           -0.4006743             -10.9029
       121        2.0000           -0.3957323             -10.7684
       122        2.0000           -0.3943570             -10.7310
       123        2.0000           -0.3919655             -10.6659
       124        2.0000           -0.3884190             -10.5694
       125        2.0000           -0.3852338             -10.4827
       126        2.0000           -0.3850498             -10.4777
       127        2.0000           -0.3845567             -10.4643
       128        2.0000           -0.3677328             -10.0065
       129        2.0000           -0.3445561              -9.3758
       130        1.9949           -0.3298179              -8.9748 (HOMO)
       131        0.0051           -0.3184920              -8.6666 (LUMO)
       132                         -0.3024067              -8.2289
       133                         -0.2753849              -7.4936
       134                         -0.2530897              -6.8869
       135                         -0.2519041              -6.8547
       136                         -0.2406670              -6.5489
       137                         -0.2371093              -6.4521
       138                         -0.2306551              -6.2764
       139                         -0.2232535              -6.0750
       140                         -0.2201215              -5.9898
       141                         -0.2140037              -5.8233
       ...                                ...                  ...
       259                          0.7777137              21.1627
      -------------------------------------------------------------
                  HL-Gap            0.0113258 Eh            0.3082 eV
             Fermi-level           -0.3241550 Eh           -8.8207 eV

     #   Z          covCN         q      C6AA      α(0)
     1   7 n        2.580    -0.428    31.190     8.294
     2   1 h        0.860     0.143     1.452     1.887
     3   1 h        0.860     0.143     1.451     1.887
     4   1 h        0.860     0.143     1.451     1.887
     5   6 c        2.912    -0.035    28.878     8.812
     6   6 c        2.921    -0.044    29.082     8.844
     7   6 c        2.922    -0.044    29.099     8.846
     8   6 c        2.922    -0.044    29.104     8.847
     9   6 c        2.919    -0.037    28.918     8.818
    10   6 c        2.912    -0.035    28.879     8.812
    11   6 c        2.975     0.011    27.755     8.642
    12   6 c        2.975     0.012    27.752     8.641
    13   6 c        2.992     0.001    27.989     8.678
    14   6 c        2.973     0.011    27.759     8.642
    15   6 c        2.993    -0.000    28.022     8.683
    16   6 c        2.973     0.012    27.754     8.641
    17   6 c        2.994    -0.000    28.027     8.684
    18   6 c        2.976     0.013    27.723     8.637
    19   6 c        2.998     0.001    27.986     8.678
    20   6 c        2.910    -0.028    28.712     8.786
    21   6 c        2.920    -0.037    28.917     8.818
    22   6 c        2.921    -0.043    29.080     8.843
    23   6 c        2.973     0.011    27.767     8.643
    24   6 c        2.992     0.001    27.989     8.678
    25   6 c        2.989     0.000    28.019     8.683
    26   6 c        2.989     0.000    28.019     8.683
    27   6 c        2.991    -0.001    28.043     8.687
    28   6 c        2.989     0.001    28.008     8.681
    29   6 c        2.991    -0.001    28.052     8.688
    30   6 c        2.988     0.002    27.983     8.677
    31   6 c        2.994    -0.000    28.029     8.685
    32   6 c        2.976     0.013    27.727     8.637
    33   6 c        2.922    -0.044    29.093     8.845
    34   6 c        2.922    -0.044    29.098     8.846
    35   6 c        2.976     0.013    27.730     8.638
    36   6 c        2.994    -0.001    28.032     8.685
    37   6 c        2.988     0.002    27.985     8.678
    38   6 c        2.991    -0.001    28.054     8.688
    39   6 c        2.989     0.000    28.009     8.681
    40   6 c        2.991    -0.001    28.043     8.687
    41   6 c        2.989     0.000    28.018     8.683
    42   6 c        2.989     0.000    28.017     8.683
    43   6 c        2.992     0.001    27.985     8.678
    44   6 c        2.973     0.011    27.764     8.643
    45   6 c        2.921    -0.043    29.076     8.843
    46   6 c        2.920    -0.037    28.923     8.819
    47   6 c        2.910    -0.029    28.714     8.787
    48   6 c        2.998     0.001    27.988     8.678
    49   6 c        2.976     0.013    27.725     8.637
    50   6 c        2.994    -0.000    28.028     8.684
    51   6 c        2.973     0.011    27.755     8.642
    52   6 c        2.993    -0.000    28.022     8.683
    53   6 c        2.973     0.011    27.758     8.642
    54   6 c        2.992     0.001    27.987     8.678
    55   6 c        2.975     0.012    27.748     8.641
    56   6 c        2.975     0.012    27.751     8.641
    57   6 c        2.912    -0.035    28.874     8.811
    58   6 c        2.919    -0.037    28.923     8.819
    59   6 c        2.922    -0.045    29.109     8.848
    60   6 c        2.922    -0.044    29.101     8.846
    61   6 c        2.921    -0.044    29.081     8.843
    62   6 c        2.912    -0.035    28.874     8.811
    63   1 h        0.926     0.031     2.578     2.511
    64   1 h        0.926     0.031     2.566     2.505
    65   1 h        0.925     0.031     2.567     2.506
    66   1 h        0.926     0.031     2.576     2.510
    67   1 h        0.926     0.030     2.581     2.512
    68   1 h        0.925     0.031     2.572     2.508
    69   1 h        0.926     0.031     2.571     2.507
    70   1 h        0.926     0.030     2.583     2.513
    71   1 h        0.926     0.030     2.581     2.512
    72   1 h        0.925     0.031     2.572     2.508
    73   1 h        0.925     0.031     2.569     2.506
    74   1 h        0.925     0.031     2.567     2.505
    75   1 h        0.926     0.031     2.578     2.511
    76   1 h        0.926     0.030     2.581     2.512
    77   1 h        0.925     0.031     2.569     2.506
    78   1 h        0.925     0.031     2.569     2.507
    79   1 h        0.925     0.031     2.569     2.506
    80   1 h        0.926     0.031     2.576     2.510
    81   1 h        0.926     0.030     2.592     2.517
    82   1 h        0.926     0.029     2.595     2.519

 Mol. C6AA /au·bohr⁶  :     122263.229422
 Mol. C8AA /au·bohr⁸  :    3271919.544136
 Mol. α(0) /au        :        570.033490


Wiberg/Mayer (AO) data.
largest (>0.10) Wiberg bond orders for each atom

 ---------------------------------------------------------------------------
     #   Z sym  total        # sym  WBO       # sym  WBO       # sym  WBO
 ---------------------------------------------------------------------------
     1   7 n    2.937 --     2 h    0.979     4 h    0.979     3 h    0.979
     2   1 h    0.980 --     1 n    0.979
     3   1 h    0.980 --     1 n    0.979
     4   1 h    0.980 --     1 n    0.979
     5   6 c    3.971 --    10 c    1.695    12 c    1.166    71 h    0.967
     6   6 c    3.881 --    12 c    1.485    14 c    1.240    72 h    0.966
     7   6 c    3.821 --    14 c    1.407    16 c    1.281    73 h    0.967
     8   6 c    3.802 --    16 c    1.360    18 c    1.315    74 h    0.967
     9   6 c    3.843 --    20 c    1.455    18 c    1.290    75 h    0.970
    10   6 c    3.970 --     5 c    1.695    11 c    1.165    67 h    0.967
    11   6 c    3.980 --    22 c    1.483    24 c    1.176    10 c    1.165
    12   6 c    3.977 --     6 c    1.485    13 c    1.173     5 c    1.166
    13   6 c    3.951 --    24 c    1.338    26 c    1.230    12 c    1.173
    14   6 c    3.981 --     7 c    1.407     6 c    1.240    15 c    1.180
    15   6 c    3.948 --    26 c    1.304    28 c    1.244    14 c    1.180
    16   6 c    3.985 --     8 c    1.360     7 c    1.281    17 c    1.186
    17   6 c    3.945 --    28 c    1.292    30 c    1.247    16 c    1.186
    18   6 c    3.986 --     8 c    1.315     9 c    1.290    19 c    1.219
    19   6 c    3.947 --    30 c    1.280    32 c    1.226    18 c    1.219
    20   6 c    3.985 --     9 c    1.455    21 c    1.438    81 h    0.970
    21   6 c    3.838 --    20 c    1.438    32 c    1.304    63 h    0.970
    22   6 c    3.876 --    11 c    1.483    23 c    1.240    68 h    0.966
    23   6 c    3.986 --    34 c    1.396    22 c    1.240    36 c    1.190
    24   6 c    3.945 --    13 c    1.338    25 c    1.225    11 c    1.176
    25   6 c    3.976 --    36 c    1.299    38 c    1.232    24 c    1.225
    26   6 c    3.968 --    15 c    1.304    13 c    1.230    27 c    1.220
    27   6 c    3.974 --    38 c    1.289    40 c    1.238    26 c    1.220
    28   6 c    3.980 --    17 c    1.292    15 c    1.244    29 c    1.222
    29   6 c    3.964 --    40 c    1.289    42 c    1.232    28 c    1.222
    30   6 c    3.986 --    19 c    1.280    17 c    1.247    31 c    1.239
    31   6 c    3.945 --    42 c    1.299    30 c    1.239    44 c    1.190
    32   6 c    3.986 --    21 c    1.304    33 c    1.293    19 c    1.226
    33   6 c    3.820 --    44 c    1.396    32 c    1.293    64 h    0.967
    34   6 c    3.820 --    23 c    1.396    35 c    1.293    69 h    0.967
    35   6 c    3.986 --    46 c    1.304    34 c    1.293    48 c    1.226
    36   6 c    3.945 --    25 c    1.299    37 c    1.239    23 c    1.190
    37   6 c    3.986 --    48 c    1.280    50 c    1.247    36 c    1.239
    38   6 c    3.964 --    27 c    1.289    25 c    1.232    39 c    1.222
    39   6 c    3.980 --    50 c    1.292    52 c    1.244    38 c    1.222
    40   6 c    3.974 --    29 c    1.289    27 c    1.238    41 c    1.220
    41   6 c    3.968 --    52 c    1.304    54 c    1.230    40 c    1.220
    42   6 c    3.976 --    31 c    1.299    29 c    1.232    43 c    1.225
    43   6 c    3.945 --    54 c    1.338    42 c    1.225    56 c    1.176
    44   6 c    3.986 --    33 c    1.396    45 c    1.240    31 c    1.190
    45   6 c    3.876 --    56 c    1.483    44 c    1.240    65 h    0.966
    46   6 c    3.838 --    47 c    1.438    35 c    1.304    70 h    0.970
    47   6 c    3.985 --    58 c    1.455    46 c    1.438    82 h    0.970
    48   6 c    3.947 --    37 c    1.280    35 c    1.226    49 c    1.219
    49   6 c    3.986 --    59 c    1.315    58 c    1.290    48 c    1.219
    50   6 c    3.945 --    39 c    1.292    37 c    1.247    51 c    1.186
    51   6 c    3.985 --    59 c    1.360    60 c    1.281    50 c    1.186
    52   6 c    3.948 --    41 c    1.304    39 c    1.244    53 c    1.180
    53   6 c    3.981 --    60 c    1.407    61 c    1.240    52 c    1.180
    54   6 c    3.951 --    43 c    1.338    41 c    1.230    55 c    1.173
    55   6 c    3.977 --    61 c    1.485    54 c    1.173    62 c    1.166
    56   6 c    3.980 --    45 c    1.483    43 c    1.176    57 c    1.165
    57   6 c    3.970 --    62 c    1.695    56 c    1.165    66 h    0.967
    58   6 c    3.843 --    47 c    1.455    49 c    1.290    76 h    0.970
    59   6 c    3.802 --    51 c    1.360    49 c    1.315    77 h    0.967
    60   6 c    3.821 --    53 c    1.407    51 c    1.281    78 h    0.967
    61   6 c    3.881 --    55 c    1.485    53 c    1.240    79 h    0.966
    62   6 c    3.971 --    57 c    1.695    55 c    1.166    80 h    0.967
    63   1 h    0.998 --    21 c    0.970
    64   1 h    0.998 --    33 c    0.967
    65   1 h    0.998 --    45 c    0.966
    66   1 h    0.998 --    57 c    0.967
    67   1 h    0.998 --    10 c    0.967
    68   1 h    0.998 --    22 c    0.966
    69   1 h    0.998 --    34 c    0.967
    70   1 h    0.998 --    46 c    0.970
    71   1 h    0.998 --     5 c    0.967
    72   1 h    0.998 --     6 c    0.966
    73   1 h    0.998 --     7 c    0.967
    74   1 h    0.998 --     8 c    0.967
    75   1 h    0.998 --     9 c    0.970
    76   1 h    0.998 --    58 c    0.970
    77   1 h    0.998 --    59 c    0.967
    78   1 h    0.998 --    60 c    0.967
    79   1 h    0.998 --    61 c    0.966
    80   1 h    0.998 --    62 c    0.967
    81   1 h    0.998 --    20 c    0.970
    82   1 h    0.998 --    47 c    0.970
 ---------------------------------------------------------------------------

Topologies differ in total number of bonds
Writing topology from bond orders to xtbtopo.mol

molecular dipole:
                 x           y           z       tot (Debye)
 q only:        0.039      -0.219       0.105
   full:        0.128      -0.587       0.247       1.650
molecular quadrupole (traceless):
                xx          xy          yy          xz          yz          zz
 q only:        5.020       1.287       6.495      -1.239       1.938     -11.515
  q+dip:       21.827       2.113      20.751      -1.850       2.422     -42.577
   full:        9.927       3.021       9.409      -1.880       2.544     -19.336


           -------------------------------------------------
          | TOTAL ENERGY             -139.144304117849 Eh   |
          | GRADIENT NORM               0.000748843454 Eh/α |
          | HOMO-LUMO GAP               0.308191751583 eV   |
           -------------------------------------------------

------------------------------------------------------------------------
 * finished run on 2024/11/21 at 16:53:48.406     
------------------------------------------------------------------------
 total:
 * wall-time:     0 d,  0 h,  0 min,  0.572 sec
 *  cpu-time:     0 d,  0 h,  0 min, 13.713 sec
 * ratio c/w:    23.963 speedup
 SCF:
 * wall-time:     0 d,  0 h,  0 min,  0.507 sec
 *  cpu-time:     0 d,  0 h,  0 min, 12.153 sec
 * ratio c/w:    23.974 speedup

