82
 energy: -139.144304122501 gnorm: 0.000748796715 xtb: 6.7.1 (edcfbbe)
n           -1.38082000027266        0.89280000017630       -0.00615535000122
h           -2.12222000041906        0.23207200004582       -0.20380200004024
h           -1.24495000024583        0.91091000017987        0.99709600019689
h           -0.53102300010486        0.53513700010567       -0.42475900008387
c            1.22095000024109        0.72522100014321        9.99999000197462
c            0.01451840000287        2.86809000056634       10.00000000197462
c           -1.19252000023548        5.00533000098836       10.00000000197462
c           -2.39655000047323        7.14307000141048       10.00000000197462
c           -3.60051000071096        9.28724000183388        9.99999000197462
c            2.38328000047061        0.04271680000844       10.00000000197462
c            3.64988000072071        0.71567500014132       10.00000000197462
c            1.19141000023526        2.15898000042632       10.00000000197462
c            2.44361000048252        2.85546000056385        9.99999000197462
c           -0.00828224000164        4.28500000084612       10.00000000197462
c            1.23928000024471        4.98635000098461        9.99999000197462
c           -1.20862000023866        6.41409000126654       10.00000000197462
c            0.03689610000729        7.11664000140527        9.99999000197462
c           -2.40429000047476        8.54525000168736       10.00000000197462
c           -1.16570000023018        9.24713000182596       10.00000000197462
c           -3.57681000070628       10.66740000210641        9.99997000197462
c           -2.37794000046955       11.35700000224258       10.00000000197462
c            4.84281000095627        0.03335280000659       10.00000000197462
c            6.09093000120273        0.70417200013905       10.00000000197462
c            3.64879000072050        2.14776000042410        9.99999000197462
c            4.88681000096496        2.84331000056144        9.99999000197462
c            2.44844000048347        4.27421000084399        9.99999000197462
c            3.68507000072766        4.97313000098200        9.99999000197462
c            1.24715000024627        6.40193000126414        9.99999000197462
c            2.48320000049034        7.10129000140224        9.99999000197462
c            0.04793740000947        8.53193000168473       10.00000000197462
c            1.28189000025312        9.22921000182242       10.00000000197462
c           -1.15282000022764       10.66920000210676       10.00000000197462
c            0.08188690001617       11.34260000223973       10.00000000197462
c            7.29811000144110        0.01966450000388       10.00000000197462
c            8.53282000168491        0.69307300013685       10.00000000197462
c            6.09811000120415        2.13304000042120        9.99999000197462
c            7.33206000144780        2.83032000055888       10.00000000197462
c            4.89680000096693        4.26096000084137        9.99999000197462
c            6.13285000121101        4.96032000097947        9.99999000197462
c            3.69493000072961        6.38913000126161        9.99999000197462
c            4.93156000097380        7.08804000139962        9.99999000197462
c            2.49319000049231        8.51894000168217        9.99999000197462
c            3.73121000073677        9.21449000181951       10.00000000197462
c            1.28907000025454       10.65810000210457       10.00000000197462
c            2.53719000050100       11.32890000223703       10.00000000197462
c            9.75794000192682        0.00529256000105       10.00000000197462
c           10.95680000216355        0.69485200013721        9.99999000197462
c            8.54570000168745        2.11512000041766       10.00000000197462
c            9.78429000193203        2.81701000055625       10.00000000197462
c            7.34310000144998        4.24561000083835       10.00000000197462
c            8.58862000169592        4.94817000097708       10.00000000197462
c            6.14072000121256        6.37590000125900        9.99999000197462
c            7.38828000145890        7.07726000139749       10.00000000197462
c            4.93639000097475        8.50679000167977        9.99999000197462
c            6.18859000122201        9.20327000181729       10.00000000197462
c            3.73012000073656       10.64660000210230       10.00000000197462
c            4.99672000098666       11.31950000223517       10.00000000197462
c           10.98050000216823        2.07501000040974       10.00000000197462
c            9.77655000193050        4.21918000083313       10.00000000197462
c            8.57252000169275        6.35692000125525       10.00000000197462
c            7.36548000145440        8.49417000167728       10.00000000197462
c            6.15905000121618       10.63700000210041        9.99999000197462
h           -2.37059000046810       12.43720000245587        9.99999000197462
h            0.08539460001686       12.42370000245321       10.00000000197462
h            2.53868000050129       12.41030000245056       10.00000000197462
h            4.98976000098529       12.40050000244863       10.00000000197462
h            2.39024000047198       -1.03827000020502       10.00000000197462
h            4.84132000095597       -1.04804000020695       10.00000000197462
h            7.29461000144041       -1.06149000020961       10.00000000197462
h            9.75059000192537       -1.07493000021226       10.00000000197462
h            0.27360100005403        0.20428200004034       10.00000000197462
h           -0.92935400018351        2.34003000046207       10.00000000197462
h           -2.13576000042173        4.47660000088396       10.00000000197462
h           -3.34023000065957        6.61524000130626       10.00000000197462
h           -4.54231000089693        8.75807000172939       10.00000000197462
h           11.92230000235420        2.60419000051423       10.00000000197462
h           10.72020000211683        4.74702000093736       10.00000000197462
h            9.51576000187900        6.88565000135965       10.00000000197462
h            8.30935000164078        9.02222000178155       10.00000000197462
h            7.10640000140324       11.15800000220328       10.00000000197462
h           -4.50778000089011       11.21660000221486       10.00000000197462
h           11.88780000234739        0.14566200002876       10.00000000197462
