      -----------------------------------------------------------      
     |                   =====================                   |     
     |                           x T B                           |     
     |                   =====================                   |     
     |                         S. Grimme                         |     
     |          Mulliken Center for Theoretical Chemistry        |     
     |                    University of Bonn                     |     
      -----------------------------------------------------------      

   * xtb version 6.5.1 (fef0646) compiled by 'conda@b96dff2e9fd6' on 2023-01-04

   xtb is free software: you can redistribute it and/or modify it under
   the terms of the GNU Lesser General Public License as published by
   the Free Software Foundation, either version 3 of the License, or
   (at your option) any later version.
   
   xtb is distributed in the hope that it will be useful,
   but WITHOUT ANY WARRANTY; without even the implied warranty of
   MERCHANTABILITY or FITNESS FOR A PARTICULAR PURPOSE.  See the
   GNU Lesser General Public License for more details.
   
   Cite this work as:
   * C. Bannwarth, E. Caldeweyher, S. Ehlert, A. Hansen, P. Pracht,
     J. Seibert, S. Spicher, S. Grimme, WIREs Comput. Mol. Sci., 2020, 11,
     e01493. DOI: 10.1002/wcms.1493
   
   for GFN2-xTB:
   * C. Bannwarth, S. Ehlert and S. Grimme., J. Chem. Theory Comput., 2019,
     15, 1652-1671. DOI: 10.1021/acs.jctc.8b01176
   for GFN1-xTB:
   * S. Grimme, C. Bannwarth, P. Shushkov, J. Chem. Theory Comput., 2017,
     13, 1989-2009. DOI: 10.1021/acs.jctc.7b00118
   for GFN0-xTB:
   * P. Pracht, E. Caldeweyher, S. Ehlert, S. Grimme, ChemRxiv, 2019, preprint.
     DOI: 10.26434/chemrxiv.8326202.v1
   for GFN-FF:
   * S. Spicher and S. Grimme, Angew. Chem. Int. Ed., 2020, 59, 15665-15673.
     DOI: 10.1002/anie.202004239
   
   for ALPB and GBSA implicit solvation:
   * S. Ehlert, M. Stahn, S. Spicher, S. Grimme, J. Chem. Theory Comput.,
     2021, 17, 4250-4261. DOI: 10.1021/acs.jctc.1c00471
   
   for DFT-D4:
   * E. Caldeweyher, C. Bannwarth and S. Grimme, J. Chem. Phys., 2017,
     147, 034112. DOI: 10.1063/1.4993215
   * E. Caldeweyher, S. Ehlert, A. Hansen, H. Neugebauer, S. Spicher,
     C. Bannwarth and S. Grimme, J. Chem. Phys., 2019, 150, 154122.
     DOI: 10.1063/1.5090222
   * E. Caldeweyher, J.-M. Mewes, S. Ehlert and S. Grimme, Phys. Chem. Chem. Phys.
     2020, 22, 8499-8512. DOI: 10.1039/D0CP00502A
   
   for sTDA-xTB:
   * S. Grimme and C. Bannwarth, J. Chem. Phys., 2016, 145, 054103.
     DOI: 10.1063/1.4959605
   
   in the mass-spec context:
   * V. Asgeirsson, C. Bauer and S. Grimme, Chem. Sci., 2017, 8, 4879.
     DOI: 10.1039/c7sc00601b
   * J. Koopman and S. Grimme, ACS Omega 2019, 4, 12, 15120-15133.
     DOI: 10.1021/acsomega.9b02011
   
   for metadynamics refer to:
   * S. Grimme, J. Chem. Theory Comput., 2019, 155, 2847-2862
     DOI: 10.1021/acs.jctc.9b00143
   
   for SPH calculations refer to:
   * S. Spicher and S. Grimme, J. Chem. Theory Comput., 2021, 17, 1701-1714
     DOI: 10.1021/acs.jctc.0c01306
   
   with help from (in alphabetical order)
   P. Atkinson, C. Bannwarth, F. Bohle, G. Brandenburg, E. Caldeweyher
   M. Checinski, S. Dohm, S. Ehlert, S. Ehrlich, I. Gerasimov, C. Hölzer
   A. Katbashev, J. Koopman, C. Lavigne, S. Lehtola, F. März, M. Müller,
   F. Musil, H. Neugebauer, J. Pisarek, C. Plett, P. Pracht, F. Pultar,
   J. Seibert, P. Shushkov, S. Spicher, M. Stahn, M. Steiner, T. Strunk,
   J. Stückrath, T. Rose, and J. Unsleber
   
 * started run on 2024/11/21 at 16:28:23.297     

           -------------------------------------------------
          |                Calculation Setup                |
           -------------------------------------------------

          program call               : xtb gas
          coordinate file            : gas
          omp threads                :                    24

   ID    Z sym.   atoms
    1    6 c      1
    2    8 o      2, 3

           -------------------------------------------------
          |                 G F N 2 - x T B                 |
           -------------------------------------------------

        Reference                      10.1021/acs.jctc.8b01176
      * Hamiltonian:
        H0-scaling (s, p, d)           1.850000    2.230000    2.230000
        zeta-weighting                 0.500000
      * Dispersion:
        s8                             2.700000
        a1                             0.520000
        a2                             5.000000
        s9                             5.000000
      * Repulsion:
        kExp                           1.500000    1.000000
        rExp                           1.000000
      * Coulomb:
        alpha                          2.000000
        third order                    shell-resolved
        anisotropic                    true
        a3                             3.000000
        a5                             4.000000
        cn-shift                       1.200000
        cn-exp                         4.000000
        max-rad                        5.000000


          ...................................................
          :                      SETUP                      :
          :.................................................:
          :  # basis functions                  12          :
          :  # atomic orbitals                  12          :
          :  # shells                            6          :
          :  # electrons                        16          :
          :  max. iterations                   250          :
          :  Hamiltonian                  GFN2-xTB          :
          :  restarted?                      false          :
          :  GBSA solvation                  false          :
          :  PC potential                    false          :
          :  electronic temp.          300.0000000     K    :
          :  accuracy                    1.0000000          :
          :  -> integral cutoff          0.2500000E+02      :
          :  -> integral neglect         0.1000000E-07      :
          :  -> SCF convergence          0.1000000E-05 Eh   :
          :  -> wf. convergence          0.1000000E-03 e    :
          :  Broyden damping             0.4000000          :
          ...................................................

 iter      E             dE          RMSdq      gap      omega  full diag
   1    -10.4168424 -0.104168E+02  0.728E+00    9.12       0.0  T
   2    -10.4298010 -0.129586E-01  0.369E+00    8.37       1.0  T
   3    -10.4296286  0.172338E-03  0.174E+00    8.63       1.0  T
   4    -10.4307919 -0.116329E-02  0.608E-02    8.44       1.0  T
   5    -10.4308028 -0.109032E-04  0.106E-02    8.45       5.4  T
   6    -10.4308029 -0.261485E-07  0.247E-03    8.45      23.4  T
   7    -10.4308029 -0.121160E-07  0.856E-05    8.45     674.8  T
   8    -10.4308029  0.959233E-12  0.312E-05    8.45    1847.9  T

   *** convergence criteria satisfied after 8 iterations ***

         #    Occupation            Energy/Eh            Energy/eV
      -------------------------------------------------------------
         1        2.0000           -0.8108555             -22.0645
         2        2.0000           -0.7967108             -21.6796
         3        2.0000           -0.6648122             -18.0905
         4        2.0000           -0.6635227             -18.0554
         5        2.0000           -0.6635226             -18.0554
         6        2.0000           -0.5998120             -16.3217
         7        2.0000           -0.5344443             -14.5430
         8        2.0000           -0.5344443             -14.5430 (HOMO)
         9                         -0.2237785              -6.0893 (LUMO)
        10                         -0.2237784              -6.0893
        11                          0.3106075               8.4521
        12                          1.3658138              37.1657
      -------------------------------------------------------------
                  HL-Gap            0.3106658 Eh            8.4536 eV
             Fermi-level           -0.3791114 Eh          -10.3161 eV

 SCC (total)                   0 d,  0 h,  0 min,  0.006 sec
 SCC setup                      ...        0 min,  0.000 sec (  3.422%)
 Dispersion                     ...        0 min,  0.000 sec (  4.022%)
 classical contributions        ...        0 min,  0.000 sec (  1.470%)
 integral evaluation            ...        0 min,  0.001 sec ( 11.067%)
 iterations                     ...        0 min,  0.003 sec ( 55.585%)
 molecular gradient             ...        0 min,  0.001 sec ( 22.494%)
 printout                       ...        0 min,  0.000 sec (  1.436%)

         :::::::::::::::::::::::::::::::::::::::::::::::::::::
         ::                     SUMMARY                     ::
         :::::::::::::::::::::::::::::::::::::::::::::::::::::
         :: total energy             -10.308452044287 Eh    ::
         :: gradient norm              0.000758392828 Eh/a0 ::
         :: HOMO-LUMO gap              8.453647690784 eV    ::
         ::.................................................::
         :: SCC energy               -10.430802876240 Eh    ::
         :: -> isotropic ES            0.032325365717 Eh    ::
         :: -> anisotropic ES          0.003406192774 Eh    ::
         :: -> anisotropic XC          0.000428209136 Eh    ::
         :: -> dispersion             -0.000687161974 Eh    ::
         :: repulsion energy           0.122350833547 Eh    ::
         :: add. restraining           0.000000000000 Eh    ::
         :: total charge              -0.000000000000 e     ::
         :::::::::::::::::::::::::::::::::::::::::::::::::::::

           -------------------------------------------------
          |                Property Printout                |
           -------------------------------------------------

    * Orbital Energies and Occupations

         #    Occupation            Energy/Eh            Energy/eV
      -------------------------------------------------------------
         1        2.0000           -0.8108555             -22.0645
         2        2.0000           -0.7967108             -21.6796
         3        2.0000           -0.6648122             -18.0905
         4        2.0000           -0.6635227             -18.0554
         5        2.0000           -0.6635226             -18.0554
         6        2.0000           -0.5998120             -16.3217
         7        2.0000           -0.5344443             -14.5430
         8        2.0000           -0.5344443             -14.5430 (HOMO)
         9                         -0.2237785              -6.0893 (LUMO)
        10                         -0.2237784              -6.0893
        11                          0.3106075               8.4521
        12                          1.3658138              37.1657
      -------------------------------------------------------------
                  HL-Gap            0.3106658 Eh            8.4536 eV
             Fermi-level           -0.3791114 Eh          -10.3161 eV

     #   Z          covCN         q      C6AA      α(0)
     1   6 c        1.711     0.464    21.599     7.524
     2   8 o        0.856    -0.232    18.601     5.782
     3   8 o        0.856    -0.232    18.599     5.782

 Mol. C6AA /au·bohr⁶  :        174.800480
 Mol. C8AA /au·bohr⁸  :       4029.878255
 Mol. α(0) /au        :         19.088378


Wiberg/Mayer (AO) data.
largest (>0.10) Wiberg bond orders for each atom

 ---------------------------------------------------------------------------
     #   Z sym  total        # sym  WBO       # sym  WBO       # sym  WBO
 ---------------------------------------------------------------------------
     1   6 c    3.936 --     3 o    1.968     2 o    1.968
     2   8 o    2.370 --     1 c    1.968     3 o    0.402
     3   8 o    2.370 --     1 c    1.968     2 o    0.402
 ---------------------------------------------------------------------------

Topologies differ in total number of bonds
Writing topology from bond orders to xtbtopo.mol

molecular dipole:
                 x           y           z       tot (Debye)
 q only:        0.000       0.000       0.000
   full:        0.000       0.001       0.000       0.002
molecular quadrupole (traceless):
                xx          xy          yy          xz          yz          zz
 q only:       -1.001      -1.513      -0.010       0.388       0.283       1.011
  q+dip:       -1.434      -2.169      -0.015       0.556       0.406       1.449
   full:       -2.011      -3.042      -0.022       0.781       0.569       2.033


           -------------------------------------------------
          | TOTAL ENERGY              -10.308452044287 Eh   |
          | GRADIENT NORM               0.000758392828 Eh/α |
          | HOMO-LUMO GAP               8.453647690784 eV   |
           -------------------------------------------------

------------------------------------------------------------------------
 * finished run on 2024/11/21 at 16:28:23.392     
------------------------------------------------------------------------
 total:
 * wall-time:     0 d,  0 h,  0 min,  0.094 sec
 *  cpu-time:     0 d,  0 h,  0 min,  2.165 sec
 * ratio c/w:    22.939 speedup
 SCF:
 * wall-time:     0 d,  0 h,  0 min,  0.006 sec
 *  cpu-time:     0 d,  0 h,  0 min,  0.063 sec
 * ratio c/w:    10.960 speedup

