3
 energy: -10.308452044289 gnorm: 0.000758276297 xtb: 6.7.1 (edcfbbe)
c           -1.99969000039486        0.88131900017403       -0.07847360001550
o           -2.91478000057556        0.21722000004289        0.09232520001823
o           -1.08443000021413        1.54483000030505       -0.24988200004934
